# Moment      
# CofR        : (2.929541e+00 0.000000e+00 2.000000e-01)
#
# Time        	(total_x total_y total_z)	(pressure_x pressure_y pressure_z)	(viscous_x viscous_y viscous_z)
0.000120005   	(-8.303654e+05 -2.582867e+07 1.462674e+07)	(-8.303654e+05 -2.582869e+07 1.462679e+07)	(-2.522416e-02 2.271787e+01 -4.496767e+01)
0.000264017   	(-8.136187e+04 4.975778e+05 -3.401358e+05)	(-8.136190e+04 4.975554e+05 -3.400894e+05)	(3.198365e-02 2.241381e+01 -4.636935e+01)
0.000436833   	(-5.307264e+04 3.833659e+05 -2.154914e+05)	(-5.307269e+04 3.833436e+05 -2.154451e+05)	(4.840811e-02 2.228869e+01 -4.632627e+01)
0.000644211   	(-3.929850e+04 3.163727e+05 -1.624350e+05)	(-3.929856e+04 3.163505e+05 -1.623888e+05)	(5.827169e-02 2.222240e+01 -4.623030e+01)
0.000893055   	(-3.151528e+04 2.765585e+05 -1.368416e+05)	(-3.151534e+04 2.765363e+05 -1.367955e+05)	(6.570807e-02 2.218242e+01 -4.611023e+01)
0.00119165    	(-2.677405e+04 2.523421e+05 -1.223046e+05)	(-2.677412e+04 2.523200e+05 -1.222586e+05)	(7.194584e-02 2.215629e+01 -4.597232e+01)
0.0015499     	(-2.375497e+04 2.367432e+05 -1.133364e+05)	(-2.375505e+04 2.367211e+05 -1.132906e+05)	(7.755992e-02 2.213769e+01 -4.581550e+01)
0.00197972    	(-2.174053e+04 2.264723e+05 -1.076369e+05)	(-2.174061e+04 2.264502e+05 -1.075913e+05)	(8.190471e-02 2.211735e+01 -4.563860e+01)
0.00249549    	(-2.036642e+04 2.189187e+05 -1.038262e+05)	(-2.036650e+04 2.188966e+05 -1.037808e+05)	(8.399930e-02 2.209186e+01 -4.544254e+01)
0.00311429    	(-1.945953e+04 2.132024e+05 -1.011583e+05)	(-1.945962e+04 2.131804e+05 -1.011131e+05)	(8.348755e-02 2.206541e+01 -4.522795e+01)
0.00385657    	(-1.884708e+04 2.092477e+05 -9.935304e+04)	(-1.884716e+04 2.092257e+05 -9.930804e+04)	(8.021573e-02 2.203666e+01 -4.499609e+01)
0.00474757    	(-1.845153e+04 2.065914e+05 -9.815663e+04)	(-1.845161e+04 2.065694e+05 -9.811188e+04)	(7.467757e-02 2.199584e+01 -4.474851e+01)
0.00581659    	(-1.818329e+04 2.050376e+05 -9.755541e+04)	(-1.818336e+04 2.050157e+05 -9.751093e+04)	(6.737033e-02 2.193864e+01 -4.448602e+01)
0.00709941    	(-1.800744e+04 2.045892e+05 -9.756499e+04)	(-1.800750e+04 2.045673e+05 -9.752077e+04)	(5.864948e-02 2.185276e+01 -4.421101e+01)
0.00863879    	(-1.792916e+04 2.052051e+05 -9.806807e+04)	(-1.792921e+04 2.051833e+05 -9.802414e+04)	(4.910901e-02 2.172566e+01 -4.393076e+01)
0.0104849     	(-1.791466e+04 2.067326e+05 -9.913392e+04)	(-1.791470e+04 2.067110e+05 -9.909027e+04)	(3.903283e-02 2.155211e+01 -4.365520e+01)
0.0126986     	(-1.797663e+04 2.094886e+05 -1.007369e+05)	(-1.797666e+04 2.094672e+05 -1.006935e+05)	(2.909330e-02 2.133521e+01 -4.339843e+01)
0.0153526     	(-1.809034e+04 2.136172e+05 -1.029810e+05)	(-1.809036e+04 2.135962e+05 -1.029378e+05)	(1.943498e-02 2.106203e+01 -4.317989e+01)
0.0185392     	(-1.823468e+04 2.182773e+05 -1.054717e+05)	(-1.823469e+04 2.182565e+05 -1.054287e+05)	(9.000406e-03 2.080008e+01 -4.302361e+01)
0.0223581     	(-1.840053e+04 2.232206e+05 -1.080978e+05)	(-1.840053e+04 2.232000e+05 -1.080549e+05)	(-3.582447e-03 2.059220e+01 -4.295506e+01)
0.026948      	(-1.856847e+04 2.282122e+05 -1.107447e+05)	(-1.856845e+04 2.281918e+05 -1.107017e+05)	(-2.122000e-02 2.042973e+01 -4.300556e+01)
0.0324454     	(-1.873216e+04 2.330014e+05 -1.132090e+05)	(-1.873212e+04 2.329811e+05 -1.131658e+05)	(-4.400907e-02 2.034362e+01 -4.319654e+01)
0.0390274     	(-1.888825e+04 2.371311e+05 -1.152548e+05)	(-1.888819e+04 2.371107e+05 -1.152113e+05)	(-6.603923e-02 2.035430e+01 -4.354588e+01)
0.0467772     	(-1.901357e+04 2.403599e+05 -1.167486e+05)	(-1.901348e+04 2.403395e+05 -1.167045e+05)	(-8.977909e-02 2.047406e+01 -4.407231e+01)
0.0557699     	(-1.914256e+04 2.431373e+05 -1.178641e+05)	(-1.914246e+04 2.431165e+05 -1.178193e+05)	(-9.857635e-02 2.083549e+01 -4.473371e+01)
0.0660332     	(-1.927138e+04 2.452016e+05 -1.184287e+05)	(-1.927131e+04 2.451801e+05 -1.183831e+05)	(-6.889818e-02 2.149897e+01 -4.551622e+01)
0.0778556     	(-1.933178e+04 2.462047e+05 -1.184749e+05)	(-1.933177e+04 2.461822e+05 -1.184285e+05)	(-2.805589e-03 2.246025e+01 -4.646083e+01)
0.0914166     	(-1.935458e+04 2.465152e+05 -1.179923e+05)	(-1.935467e+04 2.464915e+05 -1.179447e+05)	(9.110740e-02 2.370996e+01 -4.764730e+01)
0.106816      	(-1.933576e+04 2.459901e+05 -1.171436e+05)	(-1.933597e+04 2.459648e+05 -1.170944e+05)	(2.098212e-01 2.525099e+01 -4.917260e+01)
0.123993      	(-1.931220e+04 2.441045e+05 -1.156675e+05)	(-1.931255e+04 2.440773e+05 -1.156164e+05)	(3.523128e-01 2.713832e+01 -5.115669e+01)
0.143037      	(-1.925262e+04 2.409938e+05 -1.138054e+05)	(-1.925314e+04 2.409643e+05 -1.137516e+05)	(5.237522e-01 2.949484e+01 -5.380734e+01)
0.164461      	(-1.916794e+04 2.371601e+05 -1.116785e+05)	(-1.916868e+04 2.371274e+05 -1.116210e+05)	(7.354657e-01 3.264162e+01 -5.747258e+01)
0.188333      	(-1.904270e+04 2.333296e+05 -1.095839e+05)	(-1.904370e+04 2.332926e+05 -1.095213e+05)	(9.967425e-01 3.702543e+01 -6.263145e+01)
0.213698      	(-1.889862e+04 2.301818e+05 -1.078251e+05)	(-1.889991e+04 2.301387e+05 -1.077554e+05)	(1.292545e+00 4.316980e+01 -6.977300e+01)
0.240812      	(-1.871678e+04 2.273047e+05 -1.060270e+05)	(-1.871842e+04 2.272525e+05 -1.059472e+05)	(1.636702e+00 5.213818e+01 -7.975250e+01)
0.266991      	(-1.854865e+04 2.250127e+05 -1.044402e+05)	(-1.855066e+04 2.249490e+05 -1.043476e+05)	(2.017261e+00 6.376825e+01 -9.251298e+01)
0.292267      	(-1.837202e+04 2.228849e+05 -1.029602e+05)	(-1.837450e+04 2.228066e+05 -1.028517e+05)	(2.475715e+00 7.830203e+01 -1.084051e+02)
0.316671      	(-1.819823e+04 2.208466e+05 -1.014865e+05)	(-1.820125e+04 2.207515e+05 -1.013591e+05)	(3.022692e+00 9.512410e+01 -1.273730e+02)
0.341076      	(-1.803021e+04 2.187584e+05 -9.998492e+04)	(-1.803389e+04 2.186441e+05 -9.983541e+04)	(3.672938e+00 1.142890e+02 -1.495107e+02)
0.364609      	(-1.788188e+04 2.168257e+05 -9.861647e+04)	(-1.788628e+04 2.166910e+05 -9.844288e+04)	(4.395195e+00 1.346776e+02 -1.735902e+02)
0.387301      	(-1.773994e+04 2.149127e+05 -9.718568e+04)	(-1.774509e+04 2.147573e+05 -9.698695e+04)	(5.150114e+00 1.554171e+02 -1.987261e+02)
0.409994      	(-1.758810e+04 2.128377e+05 -9.568278e+04)	(-1.759402e+04 2.126613e+05 -9.545812e+04)	(5.916819e+00 1.763509e+02 -2.246544e+02)
0.432687      	(-1.740649e+04 2.108521e+05 -9.424245e+04)	(-1.741326e+04 2.106552e+05 -9.399155e+04)	(6.773149e+00 1.968613e+02 -2.509043e+02)
0.454506      	(-1.725811e+04 2.089978e+05 -9.291680e+04)	(-1.726583e+04 2.087819e+05 -9.264098e+04)	(7.721536e+00 2.159109e+02 -2.758222e+02)
0.476326      	(-1.708086e+04 2.069630e+05 -9.145772e+04)	(-1.708956e+04 2.067291e+05 -9.115781e+04)	(8.705954e+00 2.338463e+02 -2.999099e+02)
0.494384      	(-1.690239e+04 2.053601e+05 -9.012429e+04)	(-1.691188e+04 2.051118e+05 -8.980522e+04)	(9.490413e+00 2.483628e+02 -3.190734e+02)
0.512441      	(-1.673670e+04 2.038015e+05 -8.921197e+04)	(-1.674705e+04 2.035396e+05 -8.887540e+04)	(1.035252e+01 2.618541e+02 -3.365713e+02)
0.530499      	(-1.654385e+04 2.020272e+05 -8.797607e+04)	(-1.655520e+04 2.017529e+05 -8.762386e+04)	(1.134591e+01 2.742722e+02 -3.522101e+02)
0.546689      	(-1.637635e+04 2.006114e+05 -8.706024e+04)	(-1.638856e+04 2.003265e+05 -8.669537e+04)	(1.220904e+01 2.848905e+02 -3.648615e+02)
0.564124      	(-1.614910e+04 1.989557e+05 -8.612597e+04)	(-1.616228e+04 1.986605e+05 -8.574932e+04)	(1.318622e+01 2.952744e+02 -3.766437e+02)
0.577332      	(-1.597775e+04 1.977535e+05 -8.515454e+04)	(-1.599169e+04 1.974505e+05 -8.477005e+04)	(1.393600e+01 3.030128e+02 -3.844904e+02)
0.589764      	(-1.575212e+04 1.963959e+05 -8.429206e+04)	(-1.576675e+04 1.960860e+05 -8.390125e+04)	(1.462771e+01 3.098923e+02 -3.908101e+02)
0.600283      	(-1.557969e+04 1.952036e+05 -8.336641e+04)	(-1.559486e+04 1.948880e+05 -8.297052e+04)	(1.517242e+01 3.155951e+02 -3.958899e+02)
0.610801      	(-1.539314e+04 1.941310e+05 -8.286954e+04)	(-1.540889e+04 1.938101e+05 -8.246922e+04)	(1.574740e+01 3.209053e+02 -4.003177e+02)
0.622595      	(-1.517177e+04 1.927576e+05 -8.207427e+04)	(-1.518813e+04 1.924311e+05 -8.166944e+04)	(1.635520e+01 3.264850e+02 -4.048287e+02)
0.634032      	(-1.498812e+04 1.916982e+05 -8.156154e+04)	(-1.500496e+04 1.913664e+05 -8.115313e+04)	(1.683988e+01 3.317674e+02 -4.084077e+02)
0.645468      	(-1.474731e+04 1.903864e+05 -8.075498e+04)	(-1.476458e+04 1.900496e+05 -8.034346e+04)	(1.727106e+01 3.368198e+02 -4.115264e+02)
0.65813       	(-1.451591e+04 1.891805e+05 -8.031244e+04)	(-1.453368e+04 1.888386e+05 -7.989798e+04)	(1.777330e+01 3.418887e+02 -4.144631e+02)
0.672375      	(-1.424075e+04 1.877568e+05 -7.959704e+04)	(-1.425897e+04 1.874095e+05 -7.917990e+04)	(1.822064e+01 3.473106e+02 -4.171433e+02)
0.687976      	(-1.394394e+04 1.862316e+05 -7.890656e+04)	(-1.396249e+04 1.858786e+05 -7.848741e+04)	(1.855165e+01 3.529707e+02 -4.191492e+02)
0.702159      	(-1.365734e+04 1.847874e+05 -7.824192e+04)	(-1.367603e+04 1.844293e+05 -7.782170e+04)	(1.868701e+01 3.581406e+02 -4.202209e+02)
0.716342      	(-1.335400e+04 1.831930e+05 -7.752466e+04)	(-1.337278e+04 1.828301e+05 -7.710379e+04)	(1.877742e+01 3.629571e+02 -4.208734e+02)
0.732101      	(-1.303482e+04 1.815709e+05 -7.694894e+04)	(-1.305360e+04 1.812028e+05 -7.652779e+04)	(1.877306e+01 3.681423e+02 -4.211551e+02)
0.746984      	(-1.273821e+04 1.800015e+05 -7.617975e+04)	(-1.275683e+04 1.796284e+05 -7.575882e+04)	(1.862532e+01 3.730744e+02 -4.209347e+02)
0.758485      	(-1.250500e+04 1.785804e+05 -7.546402e+04)	(-1.252344e+04 1.782037e+05 -7.504372e+04)	(1.843692e+01 3.767495e+02 -4.202914e+02)
0.771196      	(-1.224415e+04 1.770994e+05 -7.484248e+04)	(-1.226237e+04 1.767189e+05 -7.442293e+04)	(1.821757e+01 3.805235e+02 -4.195472e+02)
0.784655      	(-1.203493e+04 1.758125e+05 -7.428694e+04)	(-1.205285e+04 1.754280e+05 -7.386833e+04)	(1.792092e+01 3.844755e+02 -4.186132e+02)
0.798114      	(-1.182880e+04 1.744542e+05 -7.357899e+04)	(-1.184642e+04 1.740661e+05 -7.316134e+04)	(1.762329e+01 3.881122e+02 -4.176479e+02)
0.813644      	(-1.163230e+04 1.731590e+05 -7.308452e+04)	(-1.164958e+04 1.727671e+05 -7.266785e+04)	(1.727788e+01 3.919266e+02 -4.166765e+02)
0.829173      	(-1.146943e+04 1.717375e+05 -7.230052e+04)	(-1.148632e+04 1.713419e+05 -7.188468e+04)	(1.688742e+01 3.956415e+02 -4.158391e+02)
0.843409      	(-1.131817e+04 1.702924e+05 -7.148824e+04)	(-1.133467e+04 1.698934e+05 -7.107323e+04)	(1.649797e+01 3.989418e+02 -4.150131e+02)
0.857645      	(-1.119307e+04 1.688373e+05 -7.081177e+04)	(-1.120918e+04 1.684352e+05 -7.039760e+04)	(1.610689e+01 4.021017e+02 -4.141637e+02)
0.873462      	(-1.106796e+04 1.674426e+05 -7.013958e+04)	(-1.108368e+04 1.670371e+05 -6.972600e+04)	(1.571813e+01 4.055232e+02 -4.135869e+02)
0.889279      	(-1.097808e+04 1.662163e+05 -6.942306e+04)	(-1.099339e+04 1.658073e+05 -6.900984e+04)	(1.531081e+01 4.090284e+02 -4.132241e+02)
0.905096      	(-1.088465e+04 1.647388e+05 -6.861728e+04)	(-1.089960e+04 1.643265e+05 -6.820385e+04)	(1.495530e+01 4.122920e+02 -4.134359e+02)
0.924077      	(-1.081266e+04 1.634000e+05 -6.793898e+04)	(-1.082728e+04 1.629840e+05 -6.752430e+04)	(1.461509e+01 4.160151e+02 -4.146734e+02)
0.943058      	(-1.074019e+04 1.618817e+05 -6.690204e+04)	(-1.075459e+04 1.614621e+05 -6.648555e+04)	(1.439720e+01 4.195589e+02 -4.164834e+02)
0.962039      	(-1.065032e+04 1.601696e+05 -6.584925e+04)	(-1.066463e+04 1.597467e+05 -6.543031e+04)	(1.430722e+01 4.228303e+02 -4.189380e+02)
0.981019      	(-1.058120e+04 1.585977e+05 -6.459948e+04)	(-1.059555e+04 1.581720e+05 -6.417786e+04)	(1.435043e+01 4.257682e+02 -4.216184e+02)
1.001139      	(-1.051851e+04 1.571727e+05 -6.354622e+04)	(-1.053307e+04 1.567442e+05 -6.312151e+04)	(1.455470e+01 4.284893e+02 -4.247013e+02)
1.021268      	(-1.042581e+04 1.556464e+05 -6.243809e+04)	(-1.044068e+04 1.552153e+05 -6.201004e+04)	(1.486937e+01 4.311287e+02 -4.280466e+02)
1.041615      	(-1.034754e+04 1.540009e+05 -6.114309e+04)	(-1.036289e+04 1.535678e+05 -6.071216e+04)	(1.535283e+01 4.331546e+02 -4.309268e+02)
1.061566      	(-1.027737e+04 1.524858e+05 -6.004908e+04)	(-1.029323e+04 1.520508e+05 -5.961576e+04)	(1.586299e+01 4.350231e+02 -4.333130e+02)
1.079147      	(-1.020193e+04 1.509276e+05 -5.864348e+04)	(-1.021841e+04 1.504912e+05 -5.820804e+04)	(1.648017e+01 4.363780e+02 -4.354412e+02)
1.096469      	(-1.012908e+04 1.495667e+05 -5.774695e+04)	(-1.014614e+04 1.491292e+05 -5.731039e+04)	(1.706308e+01 4.375029e+02 -4.365609e+02)
1.113465      	(-1.004351e+04 1.482615e+05 -5.687242e+04)	(-1.006113e+04 1.478229e+05 -5.643487e+04)	(1.761519e+01 4.386628e+02 -4.375485e+02)
1.130642      	(-9.959854e+03 1.470773e+05 -5.611028e+04)	(-9.978095e+03 1.466377e+05 -5.567165e+04)	(1.824030e+01 4.396363e+02 -4.386217e+02)
1.14803       	(-9.859762e+03 1.458273e+05 -5.533084e+04)	(-9.878421e+03 1.453865e+05 -5.489168e+04)	(1.865822e+01 4.407784e+02 -4.391605e+02)
1.162841      	(-9.739019e+03 1.443643e+05 -5.423124e+04)	(-9.758039e+03 1.439228e+05 -5.379147e+04)	(1.901923e+01 4.415003e+02 -4.397691e+02)
1.1779996     	(-9.619779e+03 1.431797e+05 -5.358937e+04)	(-9.639123e+03 1.427376e+05 -5.314874e+04)	(1.934403e+01 4.421164e+02 -4.406318e+02)
1.19139506    	(-9.485899e+03 1.419324e+05 -5.265665e+04)	(-9.505591e+03 1.414901e+05 -5.221493e+04)	(1.969234e+01 4.423108e+02 -4.417231e+02)
1.2069        	(-9.328803e+03 1.407736e+05 -5.214608e+04)	(-9.348816e+03 1.403310e+05 -5.170327e+04)	(2.001313e+01 4.425848e+02 -4.428145e+02)
1.22451       	(-9.169482e+03 1.395742e+05 -5.137113e+04)	(-9.189693e+03 1.391312e+05 -5.092705e+04)	(2.021104e+01 4.430202e+02 -4.440848e+02)
1.24423       	(-8.999386e+03 1.382641e+05 -5.043999e+04)	(-9.019704e+03 1.378205e+05 -4.999426e+04)	(2.031864e+01 4.436024e+02 -4.457236e+02)
1.26488       	(-8.833528e+03 1.367973e+05 -4.946420e+04)	(-8.853896e+03 1.363531e+05 -4.901671e+04)	(2.036800e+01 4.441672e+02 -4.474944e+02)
1.28481       	(-8.678387e+03 1.352514e+05 -4.848584e+04)	(-8.698703e+03 1.348066e+05 -4.803636e+04)	(2.031510e+01 4.448211e+02 -4.494829e+02)
1.30435       	(-8.539484e+03 1.337577e+05 -4.756592e+04)	(-8.559623e+03 1.333121e+05 -4.711462e+04)	(2.013935e+01 4.455432e+02 -4.512969e+02)
1.32328       	(-8.446909e+03 1.324438e+05 -4.680345e+04)	(-8.466724e+03 1.319972e+05 -4.635027e+04)	(1.981502e+01 4.465364e+02 -4.531797e+02)
1.34059       	(-8.374509e+03 1.310859e+05 -4.594249e+04)	(-8.393955e+03 1.306384e+05 -4.548763e+04)	(1.944527e+01 4.474402e+02 -4.548604e+02)
1.357546      	(-8.335738e+03 1.300879e+05 -4.544765e+04)	(-8.354768e+03 1.296394e+05 -4.499134e+04)	(1.902964e+01 4.484721e+02 -4.563088e+02)
1.37407       	(-8.275222e+03 1.288935e+05 -4.484734e+04)	(-8.293872e+03 1.284441e+05 -4.438956e+04)	(1.865069e+01 4.494258e+02 -4.577776e+02)
1.390697      	(-8.267528e+03 1.280428e+05 -4.447366e+04)	(-8.285738e+03 1.275922e+05 -4.401450e+04)	(1.820994e+01 4.505760e+02 -4.591622e+02)
1.40769       	(-8.239030e+03 1.269002e+05 -4.395305e+04)	(-8.256760e+03 1.264484e+05 -4.349245e+04)	(1.772955e+01 4.518222e+02 -4.605957e+02)
1.424761      	(-8.239991e+03 1.260917e+05 -4.362783e+04)	(-8.257289e+03 1.256386e+05 -4.316573e+04)	(1.729790e+01 4.530401e+02 -4.620995e+02)
1.441952      	(-8.219873e+03 1.250271e+05 -4.313779e+04)	(-8.236723e+03 1.245729e+05 -4.267412e+04)	(1.684975e+01 4.541802e+02 -4.636704e+02)
1.458823      	(-8.192948e+03 1.239561e+05 -4.263655e+04)	(-8.209407e+03 1.235010e+05 -4.217152e+04)	(1.645822e+01 4.551287e+02 -4.650295e+02)
1.475341      	(-8.173184e+03 1.229900e+05 -4.222217e+04)	(-8.189330e+03 1.225342e+05 -4.175587e+04)	(1.614668e+01 4.557307e+02 -4.663031e+02)
1.491373      	(-8.135341e+03 1.218420e+05 -4.166600e+04)	(-8.151286e+03 1.213861e+05 -4.119847e+04)	(1.594444e+01 4.559448e+02 -4.675367e+02)
1.507006      	(-8.106732e+03 1.207487e+05 -4.114160e+04)	(-8.122638e+03 1.202931e+05 -4.067293e+04)	(1.590577e+01 4.556446e+02 -4.686720e+02)
1.5221725     	(-8.081474e+03 1.197633e+05 -4.064574e+04)	(-8.097436e+03 1.193085e+05 -4.017598e+04)	(1.596237e+01 4.548898e+02 -4.697634e+02)
1.5369419     	(-8.065906e+03 1.187845e+05 -4.012015e+04)	(-8.081960e+03 1.183305e+05 -3.964935e+04)	(1.605431e+01 4.540029e+02 -4.707998e+02)
1.5521925     	(-8.050168e+03 1.178869e+05 -3.970675e+04)	(-8.066433e+03 1.174342e+05 -3.923489e+04)	(1.626512e+01 4.527301e+02 -4.718584e+02)
1.5672981     	(-8.048675e+03 1.170837e+05 -3.926891e+04)	(-8.065205e+03 1.166327e+05 -3.879631e+04)	(1.652973e+01 4.509908e+02 -4.725965e+02)
1.5823054     	(-8.047703e+03 1.163615e+05 -3.890877e+04)	(-8.064572e+03 1.159126e+05 -3.843585e+04)	(1.686952e+01 4.489528e+02 -4.729146e+02)
1.5973722     	(-8.050887e+03 1.156509e+05 -3.856930e+04)	(-8.068133e+03 1.152041e+05 -3.809629e+04)	(1.724644e+01 4.468546e+02 -4.730036e+02)
1.6125057     	(-8.047089e+03 1.149829e+05 -3.826703e+04)	(-8.064702e+03 1.145383e+05 -3.779434e+04)	(1.761277e+01 4.446489e+02 -4.726881e+02)
1.6285628     	(-8.043367e+03 1.142984e+05 -3.795480e+04)	(-8.061446e+03 1.138562e+05 -3.748270e+04)	(1.807912e+01 4.422022e+02 -4.720946e+02)
1.6464581     	(-8.042617e+03 1.136263e+05 -3.761657e+04)	(-8.061237e+03 1.131868e+05 -3.714573e+04)	(1.862033e+01 4.394627e+02 -4.708344e+02)
1.6640301     	(-8.039189e+03 1.130337e+05 -3.728378e+04)	(-8.058246e+03 1.125968e+05 -3.681447e+04)	(1.905655e+01 4.369259e+02 -4.693125e+02)
1.6804655     	(-8.026812e+03 1.125004e+05 -3.700233e+04)	(-8.046259e+03 1.120658e+05 -3.653464e+04)	(1.944704e+01 4.346173e+02 -4.676952e+02)
1.697718      	(-8.028596e+03 1.119966e+05 -3.676306e+04)	(-8.048396e+03 1.115643e+05 -3.629737e+04)	(1.980008e+01 4.322643e+02 -4.656909e+02)
1.7153459     	(-8.036217e+03 1.116081e+05 -3.656275e+04)	(-8.056316e+03 1.111780e+05 -3.609919e+04)	(2.009888e+01 4.300683e+02 -4.635537e+02)
1.7337764     	(-8.058372e+03 1.113624e+05 -3.641890e+04)	(-8.078707e+03 1.109344e+05 -3.595819e+04)	(2.033507e+01 4.280354e+02 -4.607108e+02)
1.7533631     	(-8.080414e+03 1.111594e+05 -3.626428e+04)	(-8.100908e+03 1.107333e+05 -3.580682e+04)	(2.049364e+01 4.261290e+02 -4.574614e+02)
1.773195      	(-8.092925e+03 1.109449e+05 -3.609544e+04)	(-8.113424e+03 1.105203e+05 -3.564165e+04)	(2.049880e+01 4.245750e+02 -4.537925e+02)
1.7934346     	(-8.111224e+03 1.108114e+05 -3.598881e+04)	(-8.131642e+03 1.103881e+05 -3.553878e+04)	(2.041831e+01 4.232673e+02 -4.500386e+02)
1.8141445     	(-8.135565e+03 1.107318e+05 -3.589565e+04)	(-8.155953e+03 1.103098e+05 -3.544991e+04)	(2.038857e+01 4.219659e+02 -4.457398e+02)
1.8353139     	(-8.136005e+03 1.105801e+05 -3.579280e+04)	(-8.156295e+03 1.101591e+05 -3.535144e+04)	(2.028987e+01 4.209667e+02 -4.413674e+02)
1.8565915     	(-8.139299e+03 1.105310e+05 -3.573113e+04)	(-8.159462e+03 1.101107e+05 -3.529354e+04)	(2.016295e+01 4.202968e+02 -4.375946e+02)
1.87804138    	(-8.147698e+03 1.104812e+05 -3.568948e+04)	(-8.167725e+03 1.100614e+05 -3.525567e+04)	(2.002661e+01 4.197811e+02 -4.338114e+02)
1.89985668    	(-8.149096e+03 1.105166e+05 -3.570513e+04)	(-8.168980e+03 1.100972e+05 -3.527559e+04)	(1.988363e+01 4.194554e+02 -4.295313e+02)
1.92161846    	(-8.143745e+03 1.105456e+05 -3.571307e+04)	(-8.163396e+03 1.101261e+05 -3.528691e+04)	(1.965062e+01 4.195022e+02 -4.261578e+02)
1.94348583    	(-8.127394e+03 1.105583e+05 -3.572667e+04)	(-8.146858e+03 1.101387e+05 -3.530372e+04)	(1.946307e+01 4.195904e+02 -4.229571e+02)
1.96540078    	(-8.116602e+03 1.106331e+05 -3.580075e+04)	(-8.135929e+03 1.102134e+05 -3.538097e+04)	(1.932746e+01 4.196921e+02 -4.197760e+02)
1.98672079    	(-8.093037e+03 1.106767e+05 -3.580820e+04)	(-8.112215e+03 1.102569e+05 -3.539141e+04)	(1.917723e+01 4.198467e+02 -4.167884e+02)
2.0080131     	(-8.072181e+03 1.108258e+05 -3.590647e+04)	(-8.091240e+03 1.104059e+05 -3.549214e+04)	(1.905965e+01 4.199448e+02 -4.143231e+02)
2.02858535    	(-8.044404e+03 1.109261e+05 -3.598472e+04)	(-8.063375e+03 1.105061e+05 -3.557253e+04)	(1.897070e+01 4.200203e+02 -4.121913e+02)
2.04934718    	(-8.017720e+03 1.110764e+05 -3.610773e+04)	(-8.036550e+03 1.106562e+05 -3.569727e+04)	(1.882954e+01 4.201959e+02 -4.104612e+02)
2.07058332    	(-7.995103e+03 1.113093e+05 -3.630789e+04)	(-8.013880e+03 1.108892e+05 -3.589927e+04)	(1.877672e+01 4.201108e+02 -4.086228e+02)
2.09177751    	(-7.974637e+03 1.115822e+05 -3.652047e+04)	(-7.993376e+03 1.111621e+05 -3.611273e+04)	(1.873893e+01 4.200574e+02 -4.077484e+02)
2.11225037    	(-7.945675e+03 1.118478e+05 -3.668866e+04)	(-7.964447e+03 1.114279e+05 -3.628138e+04)	(1.877207e+01 4.198571e+02 -4.072791e+02)
2.13200594    	(-7.931685e+03 1.121762e+05 -3.691833e+04)	(-7.950431e+03 1.117565e+05 -3.651160e+04)	(1.874647e+01 4.197826e+02 -4.067311e+02)
2.15106361    	(-7.912619e+03 1.124530e+05 -3.708738e+04)	(-7.931454e+03 1.120333e+05 -3.668024e+04)	(1.883475e+01 4.197491e+02 -4.071327e+02)
2.1695747     	(-7.891032e+03 1.127558e+05 -3.734229e+04)	(-7.909952e+03 1.123361e+05 -3.693480e+04)	(1.892014e+01 4.197072e+02 -4.074878e+02)
2.18775733    	(-7.871372e+03 1.130858e+05 -3.762314e+04)	(-7.890374e+03 1.126660e+05 -3.721517e+04)	(1.900188e+01 4.197736e+02 -4.079649e+02)
2.20575032    	(-7.846540e+03 1.134943e+05 -3.796670e+04)	(-7.865595e+03 1.130745e+05 -3.755756e+04)	(1.905481e+01 4.198874e+02 -4.091378e+02)
2.22374208    	(-7.831759e+03 1.138818e+05 -3.830160e+04)	(-7.850925e+03 1.134617e+05 -3.789119e+04)	(1.916633e+01 4.200714e+02 -4.104065e+02)
2.24175442    	(-7.814556e+03 1.143036e+05 -3.865861e+04)	(-7.833832e+03 1.138832e+05 -3.824710e+04)	(1.927656e+01 4.203392e+02 -4.115099e+02)
2.2589472     	(-7.796768e+03 1.146721e+05 -3.898987e+04)	(-7.816154e+03 1.142516e+05 -3.857734e+04)	(1.938540e+01 4.205894e+02 -4.125242e+02)
2.276035053   	(-7.777387e+03 1.149544e+05 -3.924414e+04)	(-7.796833e+03 1.145332e+05 -3.882975e+04)	(1.944581e+01 4.211944e+02 -4.143855e+02)
2.293255819   	(-7.766570e+03 1.152660e+05 -3.955612e+04)	(-7.786078e+03 1.148444e+05 -3.913987e+04)	(1.950831e+01 4.216121e+02 -4.162434e+02)
2.310763749   	(-7.755786e+03 1.155653e+05 -3.988994e+04)	(-7.775376e+03 1.151433e+05 -3.947187e+04)	(1.959013e+01 4.220964e+02 -4.180723e+02)
2.328301404   	(-7.741133e+03 1.157759e+05 -4.004257e+04)	(-7.760887e+03 1.153536e+05 -3.962258e+04)	(1.975410e+01 4.223602e+02 -4.199884e+02)
2.34574491    	(-7.734557e+03 1.159744e+05 -4.020808e+04)	(-7.754446e+03 1.155521e+05 -3.978616e+04)	(1.988851e+01 4.223044e+02 -4.219213e+02)
2.363587627   	(-7.734937e+03 1.161829e+05 -4.039224e+04)	(-7.754949e+03 1.157605e+05 -3.996788e+04)	(2.001119e+01 4.224866e+02 -4.243522e+02)
2.381199769   	(-7.732043e+03 1.163151e+05 -4.046720e+04)	(-7.752183e+03 1.158924e+05 -4.004000e+04)	(2.014041e+01 4.227804e+02 -4.272032e+02)
2.39931465    	(-7.733166e+03 1.164593e+05 -4.061335e+04)	(-7.753405e+03 1.160365e+05 -4.018361e+04)	(2.023860e+01 4.228699e+02 -4.297404e+02)
2.417445116   	(-7.742309e+03 1.166066e+05 -4.068495e+04)	(-7.762665e+03 1.161840e+05 -4.025252e+04)	(2.035618e+01 4.226031e+02 -4.324253e+02)
2.435547526   	(-7.745584e+03 1.166712e+05 -4.072024e+04)	(-7.766062e+03 1.162493e+05 -4.028489e+04)	(2.047828e+01 4.218405e+02 -4.353428e+02)
2.4547671692  	(-7.756825e+03 1.168324e+05 -4.082326e+04)	(-7.777495e+03 1.164113e+05 -4.038431e+04)	(2.066999e+01 4.210630e+02 -4.389578e+02)
2.4740728045  	(-7.759215e+03 1.168378e+05 -4.079776e+04)	(-7.780026e+03 1.164172e+05 -4.035540e+04)	(2.081052e+01 4.205683e+02 -4.423563e+02)
2.492043628   	(-7.759940e+03 1.168238e+05 -4.070472e+04)	(-7.780805e+03 1.164037e+05 -4.025954e+04)	(2.086540e+01 4.200018e+02 -4.451872e+02)
2.5103900559  	(-7.764204e+03 1.168255e+05 -4.066786e+04)	(-7.785173e+03 1.164064e+05 -4.021956e+04)	(2.096942e+01 4.190972e+02 -4.482992e+02)
2.5287965326  	(-7.767231e+03 1.167870e+05 -4.060567e+04)	(-7.788366e+03 1.163687e+05 -4.015351e+04)	(2.113468e+01 4.182977e+02 -4.521619e+02)
2.5487275596  	(-7.771386e+03 1.168394e+05 -4.067251e+04)	(-7.792631e+03 1.164219e+05 -4.021662e+04)	(2.124460e+01 4.175543e+02 -4.558967e+02)
2.5691527393  	(-7.765098e+03 1.168147e+05 -4.061727e+04)	(-7.786414e+03 1.163979e+05 -4.015830e+04)	(2.131543e+01 4.168212e+02 -4.589699e+02)
2.5875359568  	(-7.745167e+03 1.166772e+05 -4.039217e+04)	(-7.766584e+03 1.162612e+05 -3.992998e+04)	(2.141767e+01 4.160132e+02 -4.621827e+02)
2.6070694362  	(-7.745389e+03 1.167086e+05 -4.049782e+04)	(-7.767002e+03 1.162935e+05 -4.003152e+04)	(2.161344e+01 4.151335e+02 -4.662931e+02)
2.6261249271  	(-7.739248e+03 1.166477e+05 -4.038098e+04)	(-7.761016e+03 1.162335e+05 -3.991128e+04)	(2.176807e+01 4.142640e+02 -4.696948e+02)
2.64734511272 	(-7.742831e+03 1.166944e+05 -4.042674e+04)	(-7.764713e+03 1.162803e+05 -3.995382e+04)	(2.188161e+01 4.141890e+02 -4.729213e+02)
2.67092777154 	(-7.739116e+03 1.167231e+05 -4.046059e+04)	(-7.761220e+03 1.163097e+05 -3.998362e+04)	(2.210348e+01 4.134705e+02 -4.769744e+02)
2.68929628362 	(-7.706990e+03 1.164586e+05 -4.012697e+04)	(-7.729204e+03 1.160453e+05 -3.964661e+04)	(2.221377e+01 4.132531e+02 -4.803637e+02)
2.70978494631 	(-7.711950e+03 1.165057e+05 -4.024557e+04)	(-7.734314e+03 1.160925e+05 -3.976214e+04)	(2.236414e+01 4.131355e+02 -4.834259e+02)
2.7294043688  	(-7.705682e+03 1.164299e+05 -4.007382e+04)	(-7.728265e+03 1.160171e+05 -3.958762e+04)	(2.258269e+01 4.128321e+02 -4.862003e+02)
2.74981224729 	(-7.711292e+03 1.164263e+05 -4.010787e+04)	(-7.734087e+03 1.160134e+05 -3.961804e+04)	(2.279484e+01 4.129484e+02 -4.898290e+02)
2.770675669   	(-7.714012e+03 1.164877e+05 -4.014075e+04)	(-7.736990e+03 1.160746e+05 -3.964842e+04)	(2.297870e+01 4.130846e+02 -4.923241e+02)
2.79180877066 	(-7.715490e+03 1.164661e+05 -4.007750e+04)	(-7.738700e+03 1.160528e+05 -3.958295e+04)	(2.320927e+01 4.132802e+02 -4.945471e+02)
2.81339818789 	(-7.712443e+03 1.164414e+05 -4.005772e+04)	(-7.735962e+03 1.160277e+05 -3.956018e+04)	(2.351889e+01 4.136274e+02 -4.975451e+02)
2.83437969448 	(-7.718919e+03 1.164714e+05 -4.007987e+04)	(-7.742750e+03 1.160576e+05 -3.958021e+04)	(2.383132e+01 4.138560e+02 -4.996562e+02)
2.856596493425	(-7.727611e+03 1.165201e+05 -4.010823e+04)	(-7.751770e+03 1.161060e+05 -3.960705e+04)	(2.415907e+01 4.141024e+02 -5.011749e+02)
2.877581733133	(-7.728669e+03 1.165390e+05 -4.003990e+04)	(-7.753134e+03 1.161244e+05 -3.953654e+04)	(2.446504e+01 4.145838e+02 -5.033530e+02)
2.898802772233	(-7.734351e+03 1.165773e+05 -4.008214e+04)	(-7.759151e+03 1.161623e+05 -3.957706e+04)	(2.480026e+01 4.150127e+02 -5.050886e+02)
2.921836696978	(-7.745029e+03 1.166056e+05 -4.014395e+04)	(-7.770137e+03 1.161902e+05 -3.963772e+04)	(2.510795e+01 4.153689e+02 -5.062296e+02)
2.942665703693	(-7.739950e+03 1.165030e+05 -4.006292e+04)	(-7.765320e+03 1.160874e+05 -3.955514e+04)	(2.537026e+01 4.156315e+02 -5.077815e+02)
2.963315880184	(-7.739777e+03 1.165100e+05 -4.009639e+04)	(-7.765468e+03 1.160943e+05 -3.958741e+04)	(2.569094e+01 4.157558e+02 -5.089781e+02)
2.984685666967	(-7.744491e+03 1.164858e+05 -4.009302e+04)	(-7.770449e+03 1.160700e+05 -3.958338e+04)	(2.595831e+01 4.158165e+02 -5.096424e+02)
3.00748652284 	(-7.749943e+03 1.165666e+05 -4.015601e+04)	(-7.776174e+03 1.161508e+05 -3.964494e+04)	(2.623156e+01 4.158527e+02 -5.110671e+02)
3.030237984305	(-7.756454e+03 1.165463e+05 -4.019616e+04)	(-7.782965e+03 1.161304e+05 -3.968418e+04)	(2.651150e+01 4.159343e+02 -5.119830e+02)
3.053079720153	(-7.766616e+03 1.165300e+05 -4.022217e+04)	(-7.793315e+03 1.161143e+05 -3.970952e+04)	(2.669941e+01 4.157425e+02 -5.126516e+02)
3.0746990574453	(-7.771343e+03 1.165444e+05 -4.015947e+04)	(-7.798198e+03 1.161289e+05 -3.964535e+04)	(2.685539e+01 4.155399e+02 -5.141239e+02)
3.0963371460382	(-7.783719e+03 1.165766e+05 -4.020631e+04)	(-7.810760e+03 1.161614e+05 -3.969179e+04)	(2.704109e+01 4.151664e+02 -5.145176e+02)
3.1177539505712	(-7.800754e+03 1.165387e+05 -4.019649e+04)	(-7.827862e+03 1.161236e+05 -3.968091e+04)	(2.710790e+01 4.151348e+02 -5.155828e+02)
3.1406776478619	(-7.825615e+03 1.166180e+05 -4.026658e+04)	(-7.852851e+03 1.162031e+05 -3.974972e+04)	(2.723600e+01 4.148689e+02 -5.168606e+02)
3.1631022395594	(-7.851871e+03 1.166744e+05 -4.028652e+04)	(-7.879229e+03 1.162600e+05 -3.976909e+04)	(2.735807e+01 4.143926e+02 -5.174309e+02)
3.1846165222916	(-7.880167e+03 1.167271e+05 -4.027199e+04)	(-7.907660e+03 1.163132e+05 -3.975263e+04)	(2.749320e+01 4.139343e+02 -5.193643e+02)
3.2061004605672	(-7.922634e+03 1.168158e+05 -4.034707e+04)	(-7.950106e+03 1.164019e+05 -3.982636e+04)	(2.747213e+01 4.139423e+02 -5.207074e+02)
3.2288584838155	(-7.955299e+03 1.168873e+05 -4.034864e+04)	(-7.982818e+03 1.164738e+05 -3.982695e+04)	(2.751946e+01 4.135201e+02 -5.216965e+02)
3.2512753447138	(-7.987651e+03 1.169506e+05 -4.036190e+04)	(-8.015263e+03 1.165377e+05 -3.983798e+04)	(2.761128e+01 4.129439e+02 -5.239275e+02)
3.2735139596378	(-8.028046e+03 1.170504e+05 -4.042323e+04)	(-8.055780e+03 1.166378e+05 -3.989813e+04)	(2.773371e+01 4.126331e+02 -5.251032e+02)
3.29555596590724	(-8.059356e+03 1.171898e+05 -4.046609e+04)	(-8.087027e+03 1.167774e+05 -3.993945e+04)	(2.767125e+01 4.123772e+02 -5.266332e+02)
3.31769561807761	(-8.098085e+03 1.172764e+05 -4.051960e+04)	(-8.125736e+03 1.168643e+05 -3.999115e+04)	(2.765077e+01 4.121927e+02 -5.284475e+02)
3.34032956105044	(-8.144078e+03 1.173654e+05 -4.058100e+04)	(-8.171730e+03 1.169535e+05 -4.005159e+04)	(2.765136e+01 4.118838e+02 -5.294069e+02)
3.36270770091181	(-8.178669e+03 1.174646e+05 -4.059050e+04)	(-8.206250e+03 1.170529e+05 -4.005935e+04)	(2.758084e+01 4.116488e+02 -5.311548e+02)
3.38521094702929	(-8.211236e+03 1.175816e+05 -4.063883e+04)	(-8.238841e+03 1.171701e+05 -4.010647e+04)	(2.760439e+01 4.115495e+02 -5.323628e+02)
3.40760223614812	(-8.244552e+03 1.177011e+05 -4.071084e+04)	(-8.272072e+03 1.172896e+05 -4.017727e+04)	(2.752019e+01 4.115056e+02 -5.335758e+02)
3.42998622114456	(-8.273831e+03 1.178110e+05 -4.073461e+04)	(-8.301195e+03 1.173993e+05 -4.020003e+04)	(2.736423e+01 4.116953e+02 -5.345828e+02)
3.45255555030402	(-8.299542e+03 1.178634e+05 -4.077734e+04)	(-8.326905e+03 1.174518e+05 -4.024220e+04)	(2.736306e+01 4.116047e+02 -5.351357e+02)
3.47510784647056	(-8.322633e+03 1.179404e+05 -4.085622e+04)	(-8.349948e+03 1.175289e+05 -4.031918e+04)	(2.731486e+01 4.115444e+02 -5.370428e+02)