# Force       
# CofR        : (2.929541e+00 0.000000e+00 2.000000e-01)
#
# Time        	total_x total_y total_z	pressure_x pressure_y pressure_z	viscous_x viscous_y viscous_z
0.00385805     -3.359535e+03 1.103623e+03 1.653307e+04 -3.001962e+03 1.102769e+03 1.654083e+04 -3.575734e+02 8.542243e-01 -7.760953e+00
0.00474966     -3.365993e+03 1.104737e+03 1.654816e+04 -3.005616e+03 1.103874e+03 1.655596e+04 -3.603776e+02 8.632076e-01 -7.805956e+00
0.00581959     -3.380036e+03 1.098162e+03 1.654388e+04 -3.016427e+03 1.097286e+03 1.655174e+04 -3.636099e+02 8.753864e-01 -7.864659e+00
0.00710351     -3.399361e+03 1.075031e+03 1.652237e+04 -3.032060e+03 1.074140e+03 1.653031e+04 -3.673004e+02 8.905777e-01 -7.939845e+00
0.00864421     -3.431003e+03 1.066383e+03 1.650380e+04 -3.059536e+03 1.065474e+03 1.651183e+04 -3.714665e+02 9.094175e-01 -8.032488e+00
0.0104931      -3.467991e+03 1.058276e+03 1.647896e+04 -3.091897e+03 1.057344e+03 1.648710e+04 -3.760935e+02 9.320591e-01 -8.142179e+00
0.0127117      -3.511925e+03 1.046058e+03 1.646837e+04 -3.130797e+03 1.045099e+03 1.647664e+04 -3.811280e+02 9.588630e-01 -8.269937e+00
0.015374       -3.564774e+03 1.046054e+03 1.645954e+04 -3.178312e+03 1.045066e+03 1.646795e+04 -3.864626e+02 9.879672e-01 -8.413405e+00
0.0185688      -3.616027e+03 1.032052e+03 1.643294e+04 -3.224061e+03 1.031035e+03 1.644151e+04 -3.919655e+02 1.016307e+00 -8.572066e+00
0.0224026      -3.656270e+03 1.020101e+03 1.639689e+04 -3.258997e+03 1.019062e+03 1.640563e+04 -3.972726e+02 1.038451e+00 -8.742347e+00
0.0270031      -3.710224e+03 9.901246e+02 1.637817e+04 -3.308226e+03 9.890796e+02 1.638709e+04 -4.019980e+02 1.044952e+00 -8.921776e+00
0.0325237      -3.762414e+03 9.606278e+02 1.636185e+04 -3.356771e+03 9.596080e+02 1.637096e+04 -4.056432e+02 1.019776e+00 -9.109129e+00
0.0391484      -3.812066e+03 9.248796e+02 1.635883e+04 -3.404475e+03 9.239285e+02 1.636813e+04 -4.075903e+02 9.511243e-01 -9.302080e+00
0.0470981      -3.852684e+03 8.784286e+02 1.632975e+04 -3.445545e+03 8.776145e+02 1.633925e+04 -4.071390e+02 8.141865e-01 -9.498362e+00
0.0566377      -3.887064e+03 8.260616e+02 1.628275e+04 -3.483471e+03 8.254674e+02 1.629245e+04 -4.035926e+02 5.942033e-01 -9.708518e+00
0.0680853      -3.919769e+03 7.686471e+02 1.622309e+04 -3.523366e+03 7.683881e+02 1.623300e+04 -3.964023e+02 2.589373e-01 -9.917362e+00
0.0817         -3.956648e+03 7.006801e+02 1.615966e+04 -3.571323e+03 7.008698e+02 1.616976e+04 -3.853250e+02 -1.896352e-01 -1.010903e+01
0.0972137      -3.985161e+03 6.256651e+02 1.606085e+04 -3.613967e+03 6.264037e+02 1.607111e+04 -3.711943e+02 -7.385619e-01 -1.026021e+01
0.114573       -4.007373e+03 5.649489e+02 1.596554e+04 -3.652400e+03 5.662629e+02 1.597587e+04 -3.549733e+02 -1.313948e+00 -1.032895e+01
0.133601       -4.019591e+03 5.132876e+02 1.583416e+04 -3.681622e+03 5.151731e+02 1.584446e+04 -3.379698e+02 -1.885457e+00 -1.029629e+01
0.153048       -4.039786e+03 4.781712e+02 1.572988e+04 -3.717477e+03 4.805680e+02 1.574010e+04 -3.223091e+02 -2.396745e+00 -1.021409e+01
0.173244       -4.051837e+03 4.663411e+02 1.562148e+04 -3.743474e+03 4.691326e+02 1.563160e+04 -3.083631e+02 -2.791528e+00 -1.012086e+01
0.194071       -4.064244e+03 4.928263e+02 1.551128e+04 -3.767497e+03 4.959324e+02 1.552129e+04 -2.967471e+02 -3.106069e+00 -1.001348e+01
0.21464        -4.085219e+03 5.505139e+02 1.544731e+04 -3.797402e+03 5.538670e+02 1.545724e+04 -2.878169e+02 -3.353035e+00 -9.923782e+00
0.2353         -4.108378e+03 6.254589e+02 1.539176e+04 -3.827124e+03 6.290496e+02 1.540161e+04 -2.812538e+02 -3.590703e+00 -9.843377e+00
0.256414       -4.129842e+03 7.162220e+02 1.533762e+04 -3.853223e+03 7.200425e+02 1.534741e+04 -2.766189e+02 -3.820513e+00 -9.793196e+00
0.278552       -4.152063e+03 8.160697e+02 1.533114e+04 -3.878451e+03 8.201489e+02 1.534093e+04 -2.736123e+02 -4.079182e+00 -9.786010e+00
0.301794       -4.160270e+03 9.275542e+02 1.531865e+04 -3.888279e+03 9.318939e+02 1.532847e+04 -2.719907e+02 -4.339615e+00 -9.817925e+00
0.322563       -4.143799e+03 1.028272e+03 1.527348e+04 -3.871861e+03 1.032844e+03 1.528333e+04 -2.719378e+02 -4.572009e+00 -9.844642e+00
0.343732       -4.140826e+03 1.139148e+03 1.531923e+04 -3.867982e+03 1.143987e+03 1.532914e+04 -2.728437e+02 -4.839095e+00 -9.914046e+00
0.364804       -4.129182e+03 1.256633e+03 1.532970e+04 -3.854714e+03 1.261717e+03 1.533965e+04 -2.744675e+02 -5.084055e+00 -9.944898e+00
0.385489       -4.111844e+03 1.366360e+03 1.532366e+04 -3.835214e+03 1.371680e+03 1.533361e+04 -2.766294e+02 -5.319674e+00 -9.944568e+00
0.406012       -4.101070e+03 1.450967e+03 1.535171e+04 -3.821946e+03 1.456496e+03 1.536160e+04 -2.791244e+02 -5.529604e+00 -9.893313e+00
0.42639        -4.059402e+03 1.523481e+03 1.531087e+04 -3.777423e+03 1.529214e+03 1.532071e+04 -2.819796e+02 -5.732927e+00 -9.840699e+00
0.446913       -4.030436e+03 1.578861e+03 1.532673e+04 -3.745411e+03 1.584782e+03 1.533655e+04 -2.850247e+02 -5.921054e+00 -9.828208e+00
0.467658       -4.006156e+03 1.619955e+03 1.533758e+04 -3.717863e+03 1.626050e+03 1.534738e+04 -2.882928e+02 -6.095296e+00 -9.801075e+00
0.48787        -3.992970e+03 1.616068e+03 1.531618e+04 -3.701308e+03 1.622322e+03 1.532599e+04 -2.916621e+02 -6.253728e+00 -9.808977e+00
0.508223       -3.968859e+03 1.572151e+03 1.525829e+04 -3.673731e+03 1.578559e+03 1.526813e+04 -2.951280e+02 -6.408505e+00 -9.842094e+00
0.528913       -3.956908e+03 1.489882e+03 1.518663e+04 -3.658315e+03 1.496443e+03 1.519655e+04 -2.985921e+02 -6.560418e+00 -9.925189e+00
0.54953        -3.959352e+03 1.375108e+03 1.513097e+04 -3.657229e+03 1.381826e+03 1.514104e+04 -3.021233e+02 -6.718698e+00 -1.007152e+01
0.569801       -3.956828e+03 1.274691e+03 1.504549e+04 -3.651041e+03 1.281596e+03 1.505572e+04 -3.057864e+02 -6.904049e+00 -1.022503e+01
0.589741       -3.954506e+03 1.213797e+03 1.498377e+04 -3.644842e+03 1.220889e+03 1.499420e+04 -3.096641e+02 -7.091092e+00 -1.043707e+01
0.609026       -3.959173e+03 1.179349e+03 1.493384e+04 -3.645446e+03 1.186622e+03 1.494456e+04 -3.137267e+02 -7.273025e+00 -1.071945e+01
0.627797       -3.956609e+03 1.180654e+03 1.488953e+04 -3.638591e+03 1.188104e+03 1.490056e+04 -3.180182e+02 -7.450501e+00 -1.102723e+01
0.645978       -3.959304e+03 1.203844e+03 1.485001e+04 -3.636794e+03 1.211493e+03 1.486137e+04 -3.225099e+02 -7.648844e+00 -1.135210e+01
0.663843       -3.964032e+03 1.245554e+03 1.484980e+04 -3.636842e+03 1.253389e+03 1.486151e+04 -3.271896e+02 -7.835835e+00 -1.171533e+01
0.6815         -3.967842e+03 1.277656e+03 1.483752e+04 -3.635779e+03 1.285662e+03 1.484961e+04 -3.320637e+02 -8.005893e+00 -1.208573e+01
0.699343       -3.985763e+03 1.319846e+03 1.484478e+04 -3.648676e+03 1.328048e+03 1.485725e+04 -3.370872e+02 -8.202866e+00 -1.247898e+01
0.717836       -3.983778e+03 1.343174e+03 1.483831e+04 -3.641500e+03 1.351590e+03 1.485122e+04 -3.422777e+02 -8.415469e+00 -1.291219e+01
0.736396       -3.985733e+03 1.351014e+03 1.482309e+04 -3.638305e+03 1.359685e+03 1.483648e+04 -3.474276e+02 -8.670968e+00 -1.338565e+01
0.754423       -3.985275e+03 1.379707e+03 1.481538e+04 -3.632930e+03 1.388635e+03 1.482926e+04 -3.523454e+02 -8.928442e+00 -1.387966e+01
0.773043       -3.989322e+03 1.387983e+03 1.482955e+04 -3.632083e+03 1.397203e+03 1.484397e+04 -3.572387e+02 -9.220065e+00 -1.442449e+01
0.792054       -3.988640e+03 1.410355e+03 1.481774e+04 -3.626605e+03 1.419871e+03 1.483274e+04 -3.620350e+02 -9.516467e+00 -1.500062e+01
0.811343       -3.985869e+03 1.415063e+03 1.482212e+04 -3.619239e+03 1.424900e+03 1.483770e+04 -3.666294e+02 -9.836480e+00 -1.557861e+01
0.830946       -3.984343e+03 1.440059e+03 1.483085e+04 -3.613269e+03 1.450189e+03 1.484700e+04 -3.710740e+02 -1.012948e+01 -1.614648e+01
0.850544       -3.984710e+03 1.450225e+03 1.485628e+04 -3.609536e+03 1.460637e+03 1.487297e+04 -3.751741e+02 -1.041170e+01 -1.668660e+01
0.870083       -3.968433e+03 1.470986e+03 1.483999e+04 -3.589467e+03 1.481652e+03 1.485714e+04 -3.789666e+02 -1.066628e+01 -1.715084e+01
0.890246       -3.954145e+03 1.465365e+03 1.483646e+04 -3.571729e+03 1.476292e+03 1.485407e+04 -3.824166e+02 -1.092646e+01 -1.761443e+01
0.911019       -3.950799e+03 1.449844e+03 1.485772e+04 -3.565190e+03 1.461018e+03 1.487572e+04 -3.856088e+02 -1.117413e+01 -1.800737e+01
0.932394       -3.931478e+03 1.432638e+03 1.483456e+04 -3.542949e+03 1.444027e+03 1.485289e+04 -3.885294e+02 -1.138893e+01 -1.833582e+01
0.954387       -3.923071e+03 1.395805e+03 1.484160e+04 -3.531875e+03 1.407369e+03 1.486022e+04 -3.911953e+02 -1.156437e+01 -1.862373e+01
0.97583        -3.911498e+03 1.355346e+03 1.482341e+04 -3.517997e+03 1.367049e+03 1.484227e+04 -3.935008e+02 -1.170234e+01 -1.885250e+01
0.997278       -3.903185e+03 1.306013e+03 1.481854e+04 -3.507710e+03 1.317853e+03 1.483759e+04 -3.954749e+02 -1.184008e+01 -1.905287e+01
1.01921        -3.909120e+03 1.297731e+03 1.481445e+04 -3.511904e+03 1.309719e+03 1.483363e+04 -3.972164e+02 -1.198821e+01 -1.918064e+01
1.04187        -3.899892e+03 1.236293e+03 1.478034e+04 -3.501176e+03 1.248429e+03 1.479962e+04 -3.987155e+02 -1.213644e+01 -1.927935e+01
1.06435        -3.903477e+03 1.203556e+03 1.477144e+04 -3.503549e+03 1.215832e+03 1.479079e+04 -3.999282e+02 -1.227588e+01 -1.934705e+01
1.08589        -3.912683e+03 1.184703e+03 1.475740e+04 -3.511761e+03 1.197045e+03 1.477677e+04 -4.009212e+02 -1.234211e+01 -1.937477e+01
1.10713        -3.914001e+03 1.151022e+03 1.475636e+04 -3.512282e+03 1.163400e+03 1.477574e+04 -4.017190e+02 -1.237807e+01 -1.938303e+01
1.12827        -3.920276e+03 1.139092e+03 1.474698e+04 -3.517921e+03 1.151435e+03 1.476633e+04 -4.023555e+02 -1.234328e+01 -1.935447e+01
1.14953        -3.922935e+03 1.113752e+03 1.473751e+04 -3.520091e+03 1.126033e+03 1.475684e+04 -4.028443e+02 -1.228095e+01 -1.933356e+01
1.17062        -3.927221e+03 1.081697e+03 1.472511e+04 -3.524025e+03 1.093866e+03 1.474441e+04 -4.031961e+02 -1.216807e+01 -1.929691e+01
1.19104        -3.935256e+03 1.070258e+03 1.473045e+04 -3.531823e+03 1.082259e+03 1.474970e+04 -4.034332e+02 -1.200123e+01 -1.925092e+01
1.21133        -3.950329e+03 1.074904e+03 1.475439e+04 -3.546729e+03 1.086711e+03 1.477360e+04 -4.035998e+02 -1.180672e+01 -1.921274e+01
1.23169        -3.948327e+03 1.049764e+03 1.474514e+04 -3.544625e+03 1.061335e+03 1.476428e+04 -4.037019e+02 -1.157100e+01 -1.913247e+01
1.25201        -3.958409e+03 1.079188e+03 1.476736e+04 -3.554693e+03 1.090473e+03 1.478645e+04 -4.037164e+02 -1.128521e+01 -1.908398e+01
1.27266        -3.973651e+03 1.093802e+03 1.481839e+04 -3.569984e+03 1.104801e+03 1.483740e+04 -4.036674e+02 -1.099966e+01 -1.900511e+01
1.29263        -3.969559e+03 1.131184e+03 1.482132e+04 -3.566047e+03 1.141895e+03 1.484022e+04 -4.035116e+02 -1.071129e+01 -1.890193e+01
1.31218        -3.972786e+03 1.169636e+03 1.485070e+04 -3.569606e+03 1.180033e+03 1.486953e+04 -4.031802e+02 -1.039682e+01 -1.882880e+01
1.33176        -3.977048e+03 1.211254e+03 1.487455e+04 -3.574325e+03 1.221321e+03 1.489328e+04 -4.027222e+02 -1.006678e+01 -1.872295e+01
1.351534       -3.976518e+03 1.218538e+03 1.490810e+04 -3.574388e+03 1.228273e+03 1.492673e+04 -4.021300e+02 -9.735217e+00 -1.862887e+01
1.371371       -3.978832e+03 1.241561e+03 1.491349e+04 -3.577471e+03 1.250929e+03 1.493203e+04 -4.013612e+02 -9.368059e+00 -1.853682e+01
1.391068       -3.976826e+03 1.238093e+03 1.492540e+04 -3.576366e+03 1.247076e+03 1.494386e+04 -4.004603e+02 -8.982254e+00 -1.845849e+01
1.410584       -3.972723e+03 1.243530e+03 1.491089e+04 -3.573272e+03 1.252127e+03 1.492925e+04 -3.994510e+02 -8.597144e+00 -1.836617e+01
1.429359       -3.980315e+03 1.219155e+03 1.492694e+04 -3.581890e+03 1.227391e+03 1.494519e+04 -3.984241e+02 -8.235712e+00 -1.825623e+01
1.447096       -3.966751e+03 1.201889e+03 1.486939e+04 -3.569400e+03 1.209796e+03 1.488755e+04 -3.973514e+02 -7.906393e+00 -1.816798e+01
1.464594       -3.969409e+03 1.190486e+03 1.488354e+04 -3.573107e+03 1.198095e+03 1.490161e+04 -3.963020e+02 -7.608528e+00 -1.807058e+01
1.48207        -3.980310e+03 1.191578e+03 1.489003e+04 -3.584957e+03 1.198903e+03 1.490802e+04 -3.953538e+02 -7.325506e+00 -1.799536e+01
1.499854       -3.965402e+03 1.181776e+03 1.484121e+04 -3.570958e+03 1.188805e+03 1.485916e+04 -3.944432e+02 -7.028746e+00 -1.794710e+01
1.517587       -3.969547e+03 1.193867e+03 1.484398e+04 -3.575925e+03 1.200627e+03 1.486187e+04 -3.936220e+02 -6.759362e+00 -1.789355e+01
1.5353126      -3.979525e+03 1.233903e+03 1.486507e+04 -3.586603e+03 1.240409e+03 1.488292e+04 -3.929221e+02 -6.505886e+00 -1.785004e+01
1.5531014      -3.975899e+03 1.261206e+03 1.484712e+04 -3.583563e+03 1.267482e+03 1.486495e+04 -3.923360e+02 -6.276685e+00 -1.782471e+01
1.5709175      -3.973636e+03 1.292927e+03 1.485052e+04 -3.581825e+03 1.298991e+03 1.486833e+04 -3.918117e+02 -6.064913e+00 -1.781677e+01
1.5888347      -3.979044e+03 1.324259e+03 1.485595e+04 -3.587630e+03 1.330110e+03 1.487375e+04 -3.914139e+02 -5.850965e+00 -1.780629e+01
1.6065986      -3.976719e+03 1.344031e+03 1.483955e+04 -3.585587e+03 1.349669e+03 1.485737e+04 -3.911323e+02 -5.637251e+00 -1.782186e+01
1.6245445      -3.983010e+03 1.356517e+03 1.484846e+04 -3.592068e+03 1.361940e+03 1.486632e+04 -3.909420e+02 -5.422970e+00 -1.785618e+01
1.6426373      -3.989813e+03 1.350705e+03 1.483583e+04 -3.598952e+03 1.355915e+03 1.485369e+04 -3.908615e+02 -5.210515e+00 -1.786048e+01
1.660937       -3.978368e+03 1.323503e+03 1.477940e+04 -3.587568e+03 1.328521e+03 1.479728e+04 -3.908004e+02 -5.017793e+00 -1.787310e+01
1.6793364      -3.981372e+03 1.285222e+03 1.475882e+04 -3.590593e+03 1.290070e+03 1.477669e+04 -3.907790e+02 -4.848304e+00 -1.787480e+01
1.6975322      -3.981350e+03 1.239049e+03 1.473233e+04 -3.590488e+03 1.243731e+03 1.475020e+04 -3.908620e+02 -4.682307e+00 -1.787461e+01
1.71583969     -3.981137e+03 1.207797e+03 1.468992e+04 -3.590017e+03 1.212324e+03 1.470779e+04 -3.911208e+02 -4.526956e+00 -1.786992e+01
1.73425824     -3.969765e+03 1.169924e+03 1.463400e+04 -3.578271e+03 1.174302e+03 1.465187e+04 -3.914943e+02 -4.378228e+00 -1.787683e+01
1.75282836     -3.966785e+03 1.130029e+03 1.460544e+04 -3.574759e+03 1.134251e+03 1.462336e+04 -3.920266e+02 -4.222370e+00 -1.791411e+01
1.77139802     -3.970068e+03 1.126976e+03 1.458904e+04 -3.577319e+03 1.131030e+03 1.460701e+04 -3.927494e+02 -4.054086e+00 -1.796287e+01
1.79019743     -3.968469e+03 1.121910e+03 1.456982e+04 -3.574793e+03 1.125812e+03 1.458782e+04 -3.936762e+02 -3.901911e+00 -1.799607e+01
1.80932062     -3.973718e+03 1.135467e+03 1.456719e+04 -3.578966e+03 1.139216e+03 1.458522e+04 -3.947518e+02 -3.749082e+00 -1.802078e+01
1.82845391     -3.962107e+03 1.141633e+03 1.452774e+04 -3.566180e+03 1.145211e+03 1.454578e+04 -3.959266e+02 -3.577407e+00 -1.804277e+01
1.84732427     -3.966502e+03 1.150206e+03 1.452087e+04 -3.569276e+03 1.153609e+03 1.453893e+04 -3.972260e+02 -3.402715e+00 -1.805654e+01
1.86591563     -3.970557e+03 1.175151e+03 1.452022e+04 -3.571951e+03 1.178340e+03 1.453830e+04 -3.986060e+02 -3.189788e+00 -1.807882e+01
1.88424061     -3.974626e+03 1.202235e+03 1.452343e+04 -3.574543e+03 1.205214e+03 1.454149e+04 -4.000827e+02 -2.979593e+00 -1.805859e+01
1.902247497    -3.965357e+03 1.202986e+03 1.449152e+04 -3.563785e+03 1.205750e+03 1.450953e+04 -4.015717e+02 -2.763346e+00 -1.800417e+01
1.920068311    -3.960539e+03 1.215454e+03 1.448032e+04 -3.557463e+03 1.217995e+03 1.449829e+04 -4.030764e+02 -2.540813e+00 -1.796471e+01
1.937530227    -3.963749e+03 1.236147e+03 1.449143e+04 -3.559171e+03 1.238471e+03 1.450938e+04 -4.045776e+02 -2.324540e+00 -1.794579e+01
1.95510583     -3.964499e+03 1.248719e+03 1.448236e+04 -3.558403e+03 1.250850e+03 1.450028e+04 -4.060951e+02 -2.131561e+00 -1.791873e+01
1.972868109    -3.958390e+03 1.256371e+03 1.447809e+04 -3.550819e+03 1.258355e+03 1.449594e+04 -4.075710e+02 -1.984440e+00 -1.785659e+01
1.990822065    -3.961817e+03 1.268716e+03 1.446930e+04 -3.552830e+03 1.270589e+03 1.448708e+04 -4.089871e+02 -1.872786e+00 -1.777934e+01
2.009411762    -3.961170e+03 1.284351e+03 1.447674e+04 -3.550818e+03 1.286152e+03 1.449445e+04 -4.103523e+02 -1.801053e+00 -1.771478e+01
2.027901412    -3.959130e+03 1.301661e+03 1.445723e+04 -3.547482e+03 1.303428e+03 1.447484e+04 -4.116471e+02 -1.766860e+00 -1.761655e+01
2.045694998    -3.956338e+03 1.322267e+03 1.444551e+04 -3.543490e+03 1.323997e+03 1.446303e+04 -4.128479e+02 -1.730226e+00 -1.752691e+01
2.06368794     -3.961466e+03 1.338310e+03 1.445891e+04 -3.547458e+03 1.339997e+03 1.447637e+04 -4.140075e+02 -1.687133e+00 -1.745893e+01
2.0820084363   -3.968150e+03 1.367622e+03 1.447467e+04 -3.552973e+03 1.369278e+03 1.449206e+04 -4.151768e+02 -1.655474e+00 -1.738755e+01
2.1005782789   -3.971251e+03 1.391063e+03 1.447225e+04 -3.554952e+03 1.392715e+03 1.448958e+04 -4.162993e+02 -1.652811e+00 -1.732380e+01
2.1191475202   -3.974893e+03 1.401795e+03 1.446130e+04 -3.557537e+03 1.403473e+03 1.447852e+04 -4.173559e+02 -1.677937e+00 -1.721788e+01
2.1370905445   -3.966670e+03 1.377650e+03 1.442955e+04 -3.548388e+03 1.379339e+03 1.444664e+04 -4.182817e+02 -1.689558e+00 -1.709329e+01
2.154835195    -3.968176e+03 1.385770e+03 1.442609e+04 -3.549014e+03 1.387466e+03 1.444312e+04 -4.191621e+02 -1.696231e+00 -1.702127e+01
2.1730198675   -3.979033e+03 1.395174e+03 1.443604e+04 -3.558919e+03 1.396864e+03 1.445302e+04 -4.201135e+02 -1.690682e+00 -1.697938e+01
2.1913420866   -3.983281e+03 1.393926e+03 1.443391e+04 -3.562206e+03 1.395607e+03 1.445086e+04 -4.210746e+02 -1.680999e+00 -1.695351e+01
2.2094182105   -3.982395e+03 1.394572e+03 1.442143e+04 -3.560445e+03 1.396273e+03 1.443833e+04 -4.219503e+02 -1.701607e+00 -1.690437e+01
2.2276709047   -3.981937e+03 1.407951e+03 1.441474e+04 -3.559105e+03 1.409666e+03 1.443157e+04 -4.228323e+02 -1.715436e+00 -1.682889e+01
2.2457096341   -3.974292e+03 1.406599e+03 1.439862e+04 -3.550583e+03 1.408312e+03 1.441535e+04 -4.237092e+02 -1.713665e+00 -1.672488e+01
2.26369020652  -3.972839e+03 1.427369e+03 1.439588e+04 -3.548286e+03 1.429072e+03 1.441255e+04 -4.245529e+02 -1.703348e+00 -1.667223e+01
2.2816117618   -3.986891e+03 1.417395e+03 1.441021e+04 -3.561494e+03 1.419091e+03 1.442681e+04 -4.253976e+02 -1.695952e+00 -1.659914e+01
2.29993482431  -3.974387e+03 1.407138e+03 1.436906e+04 -3.548170e+03 1.408829e+03 1.438557e+04 -4.262170e+02 -1.691539e+00 -1.651281e+01
2.31817085834  -3.981899e+03 1.381189e+03 1.434674e+04 -3.554897e+03 1.382845e+03 1.436320e+04 -4.270025e+02 -1.656132e+00 -1.645348e+01
2.33639493516  -3.977313e+03 1.371123e+03 1.432124e+04 -3.549514e+03 1.372746e+03 1.433761e+04 -4.277992e+02 -1.622973e+00 -1.637276e+01
2.35450755713  -3.989403e+03 1.343598e+03 1.432208e+04 -3.560750e+03 1.345206e+03 1.433837e+04 -4.286524e+02 -1.607517e+00 -1.628643e+01
2.37197754619  -3.985822e+03 1.330908e+03 1.428073e+04 -3.556308e+03 1.332513e+03 1.429695e+04 -4.295141e+02 -1.604525e+00 -1.621996e+01
2.38865880161  -4.002639e+03 1.316067e+03 1.430026e+04 -3.572249e+03 1.317701e+03 1.431640e+04 -4.303902e+02 -1.634222e+00 -1.613990e+01
2.40525656126  -3.985688e+03 1.313911e+03 1.425321e+04 -3.554391e+03 1.315572e+03 1.426927e+04 -4.312970e+02 -1.661504e+00 -1.606030e+01
2.42220474127  -3.996816e+03 1.317713e+03 1.427062e+04 -3.564509e+03 1.319374e+03 1.428662e+04 -4.323075e+02 -1.660223e+00 -1.600101e+01
2.4395719207   -4.004183e+03 1.340930e+03 1.429114e+04 -3.570807e+03 1.342606e+03 1.430711e+04 -4.333757e+02 -1.675714e+00 -1.596425e+01
2.4572188259   -4.006826e+03 1.352279e+03 1.427349e+04 -3.572312e+03 1.353980e+03 1.428943e+04 -4.345139e+02 -1.700712e+00 -1.593749e+01
2.47440116565  -4.001210e+03 1.361055e+03 1.426754e+04 -3.565610e+03 1.362776e+03 1.428349e+04 -4.355997e+02 -1.720558e+00 -1.595364e+01
2.4908096481   -4.008389e+03 1.363510e+03 1.427518e+04 -3.571736e+03 1.365252e+03 1.429112e+04 -4.366524e+02 -1.742323e+00 -1.593185e+01
2.5070916637   -4.005284e+03 1.359218e+03 1.427721e+04 -3.567596e+03 1.360969e+03 1.429314e+04 -4.376883e+02 -1.751314e+00 -1.593171e+01
2.52361975915  -4.011725e+03 1.353910e+03 1.429029e+04 -3.572985e+03 1.355662e+03 1.430624e+04 -4.387401e+02 -1.751946e+00 -1.595711e+01
2.54035035963  -4.014744e+03 1.352043e+03 1.427329e+04 -3.575002e+03 1.353831e+03 1.428930e+04 -4.397420e+02 -1.788222e+00 -1.600824e+01
2.55740248201  -4.013615e+03 1.331319e+03 1.426270e+04 -3.572922e+03 1.333163e+03 1.427879e+04 -4.406931e+02 -1.844694e+00 -1.608952e+01
2.5748706955   -4.008494e+03 1.316921e+03 1.425626e+04 -3.566902e+03 1.318841e+03 1.427243e+04 -4.415914e+02 -1.920732e+00 -1.616445e+01
2.59229019998  -4.011441e+03 1.301017e+03 1.423642e+04 -3.568996e+03 1.303037e+03 1.425262e+04 -4.424446e+02 -2.019985e+00 -1.620575e+01
2.609337689848 -4.013350e+03 1.279929e+03 1.422593e+04 -3.570104e+03 1.282057e+03 1.424219e+04 -4.432462e+02 -2.127567e+00 -1.625970e+01
2.626510825979 -4.018546e+03 1.272622e+03 1.423053e+04 -3.574475e+03 1.274845e+03 1.424685e+04 -4.440703e+02 -2.222626e+00 -1.632688e+01
2.643841862294 -4.016519e+03 1.247034e+03 1.423071e+04 -3.571612e+03 1.249369e+03 1.424710e+04 -4.449072e+02 -2.335547e+00 -1.638620e+01
2.660820564308 -4.015853e+03 1.235392e+03 1.420292e+04 -3.570171e+03 1.237842e+03 1.421938e+04 -4.456819e+02 -2.450152e+00 -1.645976e+01
2.677340939121 -4.013777e+03 1.234467e+03 1.418625e+04 -3.567330e+03 1.237024e+03 1.420276e+04 -4.464473e+02 -2.556637e+00 -1.651336e+01
2.693413788973 -4.024944e+03 1.229968e+03 1.419682e+04 -3.577704e+03 1.232613e+03 1.421339e+04 -4.472401e+02 -2.644443e+00 -1.656642e+01
2.709078678214 -4.027403e+03 1.227643e+03 1.420010e+04 -3.579350e+03 1.230360e+03 1.421671e+04 -4.480529e+02 -2.717317e+00 -1.661645e+01
2.724369823955 -4.024223e+03 1.229147e+03 1.417377e+04 -3.575402e+03 1.231929e+03 1.419043e+04 -4.488210e+02 -2.782003e+00 -1.665607e+01
2.739321173474 -4.023772e+03 1.226870e+03 1.416928e+04 -3.574228e+03 1.229723e+03 1.418598e+04 -4.495441e+02 -2.853085e+00 -1.669958e+01
2.753970312331 -4.028788e+03 1.233705e+03 1.417381e+04 -3.578561e+03 1.236632e+03 1.419055e+04 -4.502268e+02 -2.926776e+00 -1.674166e+01
2.7683688836077 -4.031165e+03 1.236941e+03 1.418393e+04 -3.580300e+03 1.239928e+03 1.420073e+04 -4.508649e+02 -2.987477e+00 -1.680083e+01
2.7825643301355 -4.029401e+03 1.253536e+03 1.417756e+04 -3.577907e+03 1.256563e+03 1.419444e+04 -4.514945e+02 -3.026802e+00 -1.687735e+01
2.7965834325439 -4.033921e+03 1.258127e+03 1.417956e+04 -3.581844e+03 1.261169e+03 1.419654e+04 -4.520776e+02 -3.041379e+00 -1.697694e+01
2.810483339671 -4.039514e+03 1.285895e+03 1.419354e+04 -3.586918e+03 1.288942e+03 1.421061e+04 -4.525957e+02 -3.047198e+00 -1.706998e+01
2.8242977027311 -4.041145e+03 1.297489e+03 1.420906e+04 -3.588074e+03 1.300572e+03 1.422620e+04 -4.530702e+02 -3.082561e+00 -1.713311e+01
2.8380727396083 -4.043163e+03 1.313675e+03 1.421285e+04 -3.589679e+03 1.316805e+03 1.423004e+04 -4.534841e+02 -3.130376e+00 -1.718152e+01
2.8518407471394 -4.046980e+03 1.323639e+03 1.422335e+04 -3.593117e+03 1.326826e+03 1.424057e+04 -4.538626e+02 -3.187215e+00 -1.721841e+01
2.8655278286508 -4.042663e+03 1.326029e+03 1.420521e+04 -3.588499e+03 1.329279e+03 1.422245e+04 -4.541631e+02 -3.250015e+00 -1.723905e+01
2.8791734661406 -4.039954e+03 1.326907e+03 1.419923e+04 -3.585558e+03 1.330208e+03 1.421649e+04 -4.543961e+02 -3.301434e+00 -1.725952e+01
2.892806507207 -4.040301e+03 1.323247e+03 1.420688e+04 -3.585734e+03 1.326583e+03 1.422419e+04 -4.545675e+02 -3.336307e+00 -1.730771e+01
2.90647528166726 -4.046947e+03 1.322835e+03 1.421802e+04 -3.592251e+03 1.326205e+03 1.423538e+04 -4.546955e+02 -3.369564e+00 -1.735939e+01
2.92025373969146 -4.046251e+03 1.326066e+03 1.420473e+04 -3.591479e+03 1.329466e+03 1.422214e+04 -4.547717e+02 -3.400142e+00 -1.741050e+01
2.93432083346828 -4.047357e+03 1.320278e+03 1.420801e+04 -3.592549e+03 1.323723e+03 1.422546e+04 -4.548074e+02 -3.445088e+00 -1.745458e+01
2.94903857004496 -4.054866e+03 1.322390e+03 1.420947e+04 -3.600033e+03 1.325896e+03 1.422694e+04 -4.548329e+02 -3.505451e+00 -1.747681e+01
2.96534232579799 -4.046098e+03 1.314524e+03 1.419911e+04 -3.591305e+03 1.318081e+03 1.421664e+04 -4.547930e+02 -3.556857e+00 -1.752747e+01
2.98211800941092 -4.053078e+03 1.298027e+03 1.419361e+04 -3.598334e+03 1.301630e+03 1.421119e+04 -4.547443e+02 -3.603137e+00 -1.757581e+01
2.99901926527159 -4.053900e+03 1.307814e+03 1.419247e+04 -3.599206e+03 1.311460e+03 1.421009e+04 -4.546939e+02 -3.645782e+00 -1.761970e+01
3.01597582094441 -4.049600e+03 1.295863e+03 1.417236e+04 -3.594961e+03 1.299551e+03 1.418999e+04 -4.546391e+02 -3.687986e+00 -1.763788e+01
3.0330178556438 -4.051795e+03 1.303224e+03 1.417940e+04 -3.597242e+03 1.306971e+03 1.419703e+04 -4.545532e+02 -3.746273e+00 -1.762827e+01
3.05051362092838 -4.052774e+03 1.304396e+03 1.417491e+04 -3.598300e+03 1.308192e+03 1.419254e+04 -4.544737e+02 -3.795748e+00 -1.762920e+01
3.067915579162734 -4.051486e+03 1.306892e+03 1.417221e+04 -3.597112e+03 1.310738e+03 1.418983e+04 -4.543743e+02 -3.846395e+00 -1.761721e+01
3.085119940002134 -4.048990e+03 1.318549e+03 1.417667e+04 -3.594692e+03 1.322446e+03 1.419428e+04 -4.542974e+02 -3.897060e+00 -1.760820e+01
3.102281203717728 -4.052252e+03 1.330312e+03 1.418469e+04 -3.597988e+03 1.334244e+03 1.420229e+04 -4.542647e+02 -3.932786e+00 -1.760012e+01
3.119686844870789 -4.049869e+03 1.353929e+03 1.419299e+04 -3.595685e+03 1.357912e+03 1.421058e+04 -4.541843e+02 -3.983050e+00 -1.758695e+01
3.137177758739644 -4.050396e+03 1.373759e+03 1.418413e+04 -3.596319e+03 1.377812e+03 1.420168e+04 -4.540774e+02 -4.052925e+00 -1.755432e+01
3.154624194290677 -4.052266e+03 1.364546e+03 1.421345e+04 -3.598339e+03 1.368644e+03 1.423098e+04 -4.539265e+02 -4.098242e+00 -1.753164e+01
3.172091564395722 -4.041177e+03 1.381916e+03 1.419769e+04 -3.587408e+03 1.386037e+03 1.421515e+04 -4.537685e+02 -4.120885e+00 -1.746363e+01
3.18996444848489 -4.043328e+03 1.394257e+03 1.420893e+04 -3.589744e+03 1.398352e+03 1.422635e+04 -4.535843e+02 -4.094872e+00 -1.741417e+01
3.207493154848317 -4.037713e+03 1.398721e+03 1.420494e+04 -3.584321e+03 1.402760e+03 1.422232e+04 -4.533919e+02 -4.038645e+00 -1.738001e+01
3.225126039103918 -4.048246e+03 1.391582e+03 1.423357e+04 -3.595053e+03 1.395594e+03 1.425088e+04 -4.531931e+02 -4.012042e+00 -1.731466e+01
3.242142882248339 -4.035015e+03 1.394413e+03 1.422103e+04 -3.582065e+03 1.398425e+03 1.423826e+04 -4.529494e+02 -4.012058e+00 -1.722746e+01
3.259318930446102 -4.035034e+03 1.394099e+03 1.421027e+04 -3.582317e+03 1.398078e+03 1.422739e+04 -4.527169e+02 -3.979631e+00 -1.712333e+01
3.276675690834287 -4.033611e+03 1.374865e+03 1.421668e+04 -3.581127e+03 1.378812e+03 1.423368e+04 -4.524835e+02 -3.946651e+00 -1.699892e+01
3.293985143849274 -4.034248e+03 1.372219e+03 1.421804e+04 -3.581962e+03 1.376134e+03 1.423488e+04 -4.522865e+02 -3.914877e+00 -1.684217e+01
3.311831416932787 -4.023779e+03 1.358809e+03 1.419436e+04 -3.571743e+03 1.362637e+03 1.421109e+04 -4.520359e+02 -3.827977e+00 -1.672565e+01
3.329824578274915 -4.024289e+03 1.346707e+03 1.420560e+04 -3.572427e+03 1.350418e+03 1.422223e+04 -4.518627e+02 -3.710938e+00 -1.663147e+01
3.347436613896383 -4.022782e+03 1.352139e+03 1.419111e+04 -3.571039e+03 1.355736e+03 1.420767e+04 -4.517436e+02 -3.597241e+00 -1.656156e+01
3.364853799618658 -4.026013e+03 1.364628e+03 1.419344e+04 -3.574349e+03 1.368101e+03 1.420992e+04 -4.516638e+02 -3.473539e+00 -1.648634e+01
3.382578939812521 -4.017584e+03 1.343873e+03 1.417825e+04 -3.566020e+03 1.347239e+03 1.419467e+04 -4.515641e+02 -3.366127e+00 -1.641794e+01
3.399613446026518 -4.015131e+03 1.343807e+03 1.416553e+04 -3.563636e+03 1.347036e+03 1.418190e+04 -4.514948e+02 -3.228763e+00 -1.636907e+01
3.416995903875372 -4.021259e+03 1.336832e+03 1.418875e+04 -3.569839e+03 1.339922e+03 1.420509e+04 -4.514196e+02 -3.089895e+00 -1.633918e+01
3.434691407095467 -4.021461e+03 1.355550e+03 1.418387e+04 -3.570080e+03 1.358511e+03 1.420018e+04 -4.513815e+02 -2.961859e+00 -1.631148e+01
3.452146182905239 -4.027734e+03 1.360485e+03 1.419941e+04 -3.576349e+03 1.363361e+03 1.421568e+04 -4.513845e+02 -2.876229e+00 -1.626746e+01
3.469005019874587 -4.018461e+03 1.349912e+03 1.415580e+04 -3.567046e+03 1.352675e+03 1.417201e+04 -4.514145e+02 -2.763844e+00 -1.620431e+01
3.485451566302885 -4.019915e+03 1.339607e+03 1.415931e+04 -3.568440e+03 1.342237e+03 1.417546e+04 -4.514750e+02 -2.629820e+00 -1.614527e+01
3.501680340326344 -4.015253e+03 1.342640e+03 1.414793e+04 -3.563649e+03 1.345135e+03 1.416403e+04 -4.516040e+02 -2.494549e+00 -1.610243e+01
3.517783717159563 -4.029274e+03 1.345057e+03 1.418143e+04 -3.577506e+03 1.347441e+03 1.419753e+04 -4.517679e+02 -2.383957e+00 -1.609865e+01
3.533803649673997 -4.019298e+03 1.337735e+03 1.414676e+04 -3.567373e+03 1.339994e+03 1.416289e+04 -4.519245e+02 -2.259212e+00 -1.612326e+01
3.549730850319745 -4.018569e+03 1.325286e+03 1.414596e+04 -3.566506e+03 1.327418e+03 1.416210e+04 -4.520630e+02 -2.132476e+00 -1.614647e+01
3.565571881672477 -4.023356e+03 1.337467e+03 1.414656e+04 -3.571184e+03 1.339502e+03 1.416273e+04 -4.521722e+02 -2.034810e+00 -1.616790e+01
3.581296125573261 -4.022462e+03 1.326891e+03 1.416572e+04 -3.570174e+03 1.328859e+03 1.418188e+04 -4.522872e+02 -1.967482e+00 -1.616489e+01
3.596930081150129 -4.023265e+03 1.333519e+03 1.415137e+04 -3.570867e+03 1.335425e+03 1.416754e+04 -4.523979e+02 -1.906210e+00 -1.616967e+01
3.612459198797291 -4.020408e+03 1.323299e+03 1.415046e+04 -3.567907e+03 1.325171e+03 1.416661e+04 -4.525008e+02 -1.872400e+00 -1.615359e+01
3.627890127077505 -4.016658e+03 1.314883e+03 1.413538e+04 -3.564082e+03 1.316709e+03 1.415155e+04 -4.525758e+02 -1.825441e+00 -1.616835e+01
3.643237350448496 -4.017372e+03 1.297737e+03 1.413074e+04 -3.564740e+03 1.299532e+03 1.414694e+04 -4.526319e+02 -1.794898e+00 -1.620466e+01
3.658481465603977 -4.015686e+03 1.282754e+03 1.412518e+04 -3.563004e+03 1.284519e+03 1.414144e+04 -4.526826e+02 -1.765369e+00 -1.625489e+01
3.673611075772083 -4.011283e+03 1.262405e+03 1.411076e+04 -3.558522e+03 1.264128e+03 1.412706e+04 -4.527612e+02 -1.722757e+00 -1.630913e+01