# Force       
# CofR        : (2.929541e+00 0.000000e+00 2.000000e-01)
#
# Time        	total_x total_y total_z	pressure_x pressure_y pressure_z	viscous_x viscous_y viscous_z
0.00385805     -4.104422e+03 1.456640e+03 1.605487e+04 -3.818149e+03 1.455451e+03 1.606196e+04 -2.862726e+02 1.189075e+00 -7.090008e+00
0.00474966     -4.043279e+03 1.405901e+03 1.604018e+04 -3.756664e+03 1.404716e+03 1.604728e+04 -2.866151e+02 1.185499e+00 -7.097519e+00
0.00581959     -4.012292e+03 1.361904e+03 1.602962e+04 -3.725286e+03 1.360720e+03 1.603673e+04 -2.870060e+02 1.183936e+00 -7.109825e+00
0.00710351     -4.006209e+03 1.330306e+03 1.602436e+04 -3.718762e+03 1.329122e+03 1.603149e+04 -2.874468e+02 1.183800e+00 -7.126521e+00
0.00864421     -4.018443e+03 1.320411e+03 1.603325e+04 -3.730505e+03 1.319226e+03 1.604040e+04 -2.879384e+02 1.184834e+00 -7.148675e+00
0.0104931      -4.041710e+03 1.307409e+03 1.603058e+04 -3.753235e+03 1.306224e+03 1.603776e+04 -2.884745e+02 1.185670e+00 -7.176633e+00
0.0127117      -4.071064e+03 1.297845e+03 1.603446e+04 -3.782023e+03 1.296659e+03 1.604167e+04 -2.890412e+02 1.186484e+00 -7.208379e+00
0.015374       -4.107415e+03 1.287548e+03 1.604125e+04 -3.817806e+03 1.286363e+03 1.604850e+04 -2.896093e+02 1.185685e+00 -7.242213e+00
0.0185688      -4.141543e+03 1.276234e+03 1.605796e+04 -3.851402e+03 1.275051e+03 1.606524e+04 -2.901417e+02 1.183279e+00 -7.276412e+00
0.0224026      -4.171162e+03 1.262385e+03 1.607279e+04 -3.880580e+03 1.261210e+03 1.608010e+04 -2.905829e+02 1.175455e+00 -7.308661e+00
0.0270031      -4.197649e+03 1.251096e+03 1.609291e+04 -3.906817e+03 1.249934e+03 1.610025e+04 -2.908326e+02 1.162390e+00 -7.336774e+00
0.0325237      -4.227915e+03 1.251592e+03 1.613789e+04 -3.937148e+03 1.250447e+03 1.614525e+04 -2.907671e+02 1.144865e+00 -7.355622e+00
0.0391484      -4.242543e+03 1.270822e+03 1.617300e+04 -3.952338e+03 1.269699e+03 1.618037e+04 -2.902052e+02 1.123483e+00 -7.367313e+00
0.0470981      -4.265815e+03 1.272642e+03 1.622445e+04 -3.976928e+03 1.271542e+03 1.623181e+04 -2.888869e+02 1.099754e+00 -7.359630e+00
0.0566377      -4.280676e+03 1.294221e+03 1.625851e+04 -3.994157e+03 1.293154e+03 1.626584e+04 -2.865186e+02 1.066960e+00 -7.330545e+00
0.0680853      -4.285923e+03 1.310358e+03 1.626019e+04 -4.003154e+03 1.309337e+03 1.626747e+04 -2.827696e+02 1.020608e+00 -7.275106e+00
0.0818223      -4.288172e+03 1.321563e+03 1.622886e+04 -4.010880e+03 1.320628e+03 1.623606e+04 -2.772929e+02 9.355910e-01 -7.196521e+00
0.0983068      -4.282939e+03 1.333651e+03 1.615285e+04 -4.013281e+03 1.332848e+03 1.615994e+04 -2.696579e+02 8.034738e-01 -7.092959e+00
0.118088       -4.270088e+03 1.352142e+03 1.602831e+04 -4.010410e+03 1.351494e+03 1.603528e+04 -2.596785e+02 6.486588e-01 -6.964495e+00
0.141826       -4.239722e+03 1.367619e+03 1.588007e+04 -3.992255e+03 1.367151e+03 1.588687e+04 -2.474676e+02 4.683618e-01 -6.798568e+00
0.170311       -4.202927e+03 1.396385e+03 1.569675e+04 -3.969276e+03 1.396148e+03 1.570334e+04 -2.336515e+02 2.374135e-01 -6.582469e+00
0.203753       -4.166846e+03 1.451634e+03 1.551347e+04 -3.947632e+03 1.451684e+03 1.551979e+04 -2.192140e+02 -5.053426e-02 -6.320178e+00
0.242279       -4.117229e+03 1.461745e+03 1.533031e+04 -3.911571e+03 1.462171e+03 1.533639e+04 -2.056582e+02 -4.258161e-01 -6.085252e+00
0.285553       -4.066357e+03 1.467129e+03 1.518115e+04 -3.872084e+03 1.468033e+03 1.518705e+04 -1.942736e+02 -9.035730e-01 -5.895770e+00
0.334188       -4.000973e+03 1.438946e+03 1.508051e+04 -3.815560e+03 1.440363e+03 1.508623e+04 -1.854136e+02 -1.417197e+00 -5.725567e+00
0.384188       -3.956530e+03 1.432362e+03 1.496979e+04 -3.776046e+03 1.434408e+03 1.497530e+04 -1.804846e+02 -2.045814e+00 -5.509656e+00
0.434188       -3.907686e+03 1.429017e+03 1.486660e+04 -3.729106e+03 1.431647e+03 1.487177e+04 -1.785793e+02 -2.630253e+00 -5.165661e+00
0.484188       -3.859134e+03 1.392904e+03 1.479467e+04 -3.679754e+03 1.396094e+03 1.479956e+04 -1.793799e+02 -3.189544e+00 -4.891657e+00
0.534188       -3.836753e+03 1.424353e+03 1.469062e+04 -3.655025e+03 1.428111e+03 1.469523e+04 -1.817279e+02 -3.757376e+00 -4.606074e+00
0.584188       -3.826740e+03 1.434537e+03 1.464327e+04 -3.641344e+03 1.438900e+03 1.464768e+04 -1.853963e+02 -4.363266e+00 -4.411643e+00
0.634188       -3.830771e+03 1.434193e+03 1.456092e+04 -3.641044e+03 1.439036e+03 1.456525e+04 -1.897276e+02 -4.842780e+00 -4.330000e+00
0.684188       -3.841932e+03 1.451094e+03 1.447804e+04 -3.646798e+03 1.456400e+03 1.448242e+04 -1.951348e+02 -5.306376e+00 -4.385316e+00
0.734188       -3.839856e+03 1.460189e+03 1.439414e+04 -3.638817e+03 1.465965e+03 1.439855e+04 -2.010383e+02 -5.776325e+00 -4.409222e+00
0.784188       -3.842551e+03 1.469670e+03 1.431614e+04 -3.635798e+03 1.475906e+03 1.432070e+04 -2.067532e+02 -6.235800e+00 -4.554949e+00
0.834188       -3.843327e+03 1.423955e+03 1.429511e+04 -3.630744e+03 1.430579e+03 1.429987e+04 -2.125827e+02 -6.624532e+00 -4.758882e+00
0.884188       -3.847464e+03 1.430934e+03 1.427460e+04 -3.628479e+03 1.437886e+03 1.427956e+04 -2.189854e+02 -6.951951e+00 -4.965441e+00
0.934188       -3.843864e+03 1.425271e+03 1.423848e+04 -3.618583e+03 1.432417e+03 1.424373e+04 -2.252814e+02 -7.146172e+00 -5.245059e+00
0.984188       -3.858896e+03 1.410309e+03 1.423811e+04 -3.627713e+03 1.417595e+03 1.424352e+04 -2.311832e+02 -7.285622e+00 -5.415284e+00
1.03419        -3.864206e+03 1.407206e+03 1.423290e+04 -3.628184e+03 1.414589e+03 1.423850e+04 -2.360223e+02 -7.382213e+00 -5.597213e+00
1.084188       -3.868259e+03 1.364731e+03 1.422519e+04 -3.628143e+03 1.372099e+03 1.423096e+04 -2.401155e+02 -7.367405e+00 -5.774462e+00
1.134188       -3.875011e+03 1.357565e+03 1.422567e+04 -3.631328e+03 1.364911e+03 1.423155e+04 -2.436826e+02 -7.346272e+00 -5.878783e+00
1.182447       -3.889339e+03 1.364269e+03 1.420698e+04 -3.642305e+03 1.371549e+03 1.421295e+04 -2.470344e+02 -7.280366e+00 -5.963645e+00
1.216123       -3.905373e+03 1.334008e+03 1.415791e+04 -3.656620e+03 1.341176e+03 1.416391e+04 -2.487528e+02 -7.167480e+00 -6.003784e+00
1.243019       -3.930607e+03 1.319383e+03 1.417272e+04 -3.680437e+03 1.326475e+03 1.417873e+04 -2.501696e+02 -7.091818e+00 -6.001495e+00
1.269259       -3.934656e+03 1.300781e+03 1.417978e+04 -3.683286e+03 1.307754e+03 1.418584e+04 -2.513694e+02 -6.973070e+00 -6.054762e+00
1.298959       -3.936063e+03 1.309228e+03 1.419151e+04 -3.683511e+03 1.316026e+03 1.419767e+04 -2.525517e+02 -6.797567e+00 -6.161961e+00
1.327988       -3.952025e+03 1.307026e+03 1.419888e+04 -3.698427e+03 1.313595e+03 1.420516e+04 -2.535980e+02 -6.569501e+00 -6.281690e+00
1.353263       -3.972980e+03 1.312282e+03 1.419477e+04 -3.718522e+03 1.318658e+03 1.420112e+04 -2.544579e+02 -6.375848e+00 -6.344297e+00
1.377006       -3.982969e+03 1.297781e+03 1.420594e+04 -3.727760e+03 1.303974e+03 1.421232e+04 -2.552087e+02 -6.193113e+00 -6.386980e+00
1.3982667      -3.992630e+03 1.303290e+03 1.419011e+04 -3.736835e+03 1.309347e+03 1.419652e+04 -2.557952e+02 -6.057610e+00 -6.404411e+00
1.4200865      -3.997331e+03 1.295917e+03 1.421267e+04 -3.741083e+03 1.301859e+03 1.421909e+04 -2.562480e+02 -5.942431e+00 -6.421162e+00
1.4417218      -4.001699e+03 1.289917e+03 1.421988e+04 -3.745049e+03 1.295766e+03 1.422632e+04 -2.566500e+02 -5.848442e+00 -6.439164e+00
1.4658927      -3.993527e+03 1.290240e+03 1.423262e+04 -3.736574e+03 1.295990e+03 1.423909e+04 -2.569529e+02 -5.749481e+00 -6.466982e+00
1.4874421      -4.006687e+03 1.282875e+03 1.420293e+04 -3.749504e+03 1.288559e+03 1.420942e+04 -2.571822e+02 -5.684367e+00 -6.490762e+00
1.509584       -4.008476e+03 1.286594e+03 1.422578e+04 -3.751129e+03 1.292195e+03 1.423229e+04 -2.573470e+02 -5.601206e+00 -6.506342e+00
1.53429        -4.006558e+03 1.291463e+03 1.423584e+04 -3.749074e+03 1.296976e+03 1.424234e+04 -2.574837e+02 -5.512361e+00 -6.505515e+00
1.5623628      -4.002825e+03 1.285233e+03 1.425212e+04 -3.745245e+03 1.290637e+03 1.425860e+04 -2.575798e+02 -5.404357e+00 -6.486418e+00
1.5947465      -4.000136e+03 1.285595e+03 1.424565e+04 -3.742455e+03 1.290810e+03 1.425209e+04 -2.576805e+02 -5.214102e+00 -6.442367e+00
1.6319115      -3.991846e+03 1.280248e+03 1.423709e+04 -3.734085e+03 1.285154e+03 1.424343e+04 -2.577611e+02 -4.905966e+00 -6.341446e+00
1.67395676     -3.998671e+03 1.280559e+03 1.424608e+04 -3.740421e+03 1.285013e+03 1.425231e+04 -2.582496e+02 -4.454003e+00 -6.232776e+00
1.72125269     -3.997082e+03 1.267622e+03 1.423335e+04 -3.737740e+03 1.271510e+03 1.423955e+04 -2.593422e+02 -3.887788e+00 -6.200220e+00
1.77125269     -3.990471e+03 1.308352e+03 1.419426e+04 -3.730178e+03 1.311625e+03 1.420053e+04 -2.602932e+02 -3.273238e+00 -6.273403e+00
1.82125269     -4.002372e+03 1.316976e+03 1.422051e+04 -3.741261e+03 1.319842e+03 1.422690e+04 -2.611104e+02 -2.866487e+00 -6.393004e+00
1.87125269     -4.003121e+03 1.366054e+03 1.417707e+04 -3.741079e+03 1.368572e+03 1.418362e+04 -2.620418e+02 -2.517633e+00 -6.556562e+00
1.92125269     -4.009040e+03 1.350212e+03 1.419385e+04 -3.745301e+03 1.352688e+03 1.420049e+04 -2.637391e+02 -2.475367e+00 -6.634500e+00
1.97125269     -4.013274e+03 1.383094e+03 1.418267e+04 -3.748489e+03 1.385522e+03 1.418937e+04 -2.647852e+02 -2.428297e+00 -6.704283e+00
2.02125269     -4.018727e+03 1.403180e+03 1.416092e+04 -3.753046e+03 1.405752e+03 1.416770e+04 -2.656815e+02 -2.571468e+00 -6.774156e+00
2.07125269     -4.009846e+03 1.412027e+03 1.411678e+04 -3.744295e+03 1.414584e+03 1.412358e+04 -2.655517e+02 -2.557291e+00 -6.795877e+00
2.12125269     -4.018929e+03 1.407651e+03 1.412658e+04 -3.752785e+03 1.410426e+03 1.413327e+04 -2.661447e+02 -2.775558e+00 -6.694758e+00
2.171252688    -4.021317e+03 1.447313e+03 1.411703e+04 -3.754050e+03 1.450222e+03 1.412356e+04 -2.672666e+02 -2.909343e+00 -6.530543e+00
2.221252688    -4.017358e+03 1.429258e+03 1.411893e+04 -3.749282e+03 1.432161e+03 1.412545e+04 -2.680758e+02 -2.903178e+00 -6.523136e+00
2.271252688    -4.015204e+03 1.425599e+03 1.409986e+04 -3.746748e+03 1.428484e+03 1.410647e+04 -2.684565e+02 -2.885526e+00 -6.612655e+00
2.321252688    -4.016438e+03 1.422575e+03 1.410798e+04 -3.748044e+03 1.425454e+03 1.411455e+04 -2.683939e+02 -2.878404e+00 -6.563661e+00
2.371252688    -4.028927e+03 1.414695e+03 1.411790e+04 -3.760645e+03 1.417651e+03 1.412433e+04 -2.682824e+02 -2.956271e+00 -6.427622e+00
2.421252688    -4.018980e+03 1.400703e+03 1.408731e+04 -3.749404e+03 1.403741e+03 1.409379e+04 -2.695753e+02 -3.037385e+00 -6.482083e+00
2.471252688    -4.026446e+03 1.390458e+03 1.408852e+04 -3.756643e+03 1.393527e+03 1.409487e+04 -2.698021e+02 -3.068510e+00 -6.350841e+00
2.521252688    -4.024966e+03 1.394851e+03 1.409511e+04 -3.755840e+03 1.398064e+03 1.410138e+04 -2.691258e+02 -3.212872e+00 -6.272299e+00
2.571252688    -4.036926e+03 1.377526e+03 1.411515e+04 -3.768010e+03 1.380886e+03 1.412134e+04 -2.689162e+02 -3.359815e+00 -6.186785e+00
2.621252688    -4.031006e+03 1.379529e+03 1.408521e+04 -3.762451e+03 1.382961e+03 1.409136e+04 -2.685551e+02 -3.432766e+00 -6.158332e+00
2.6712526879   -4.015893e+03 1.353469e+03 1.404893e+04 -3.746798e+03 1.356962e+03 1.405524e+04 -2.690946e+02 -3.492374e+00 -6.311562e+00
2.7212526879   -4.015610e+03 1.348898e+03 1.406918e+04 -3.745497e+03 1.352474e+03 1.407569e+04 -2.701128e+02 -3.575477e+00 -6.506949e+00
2.7712526879   -4.035274e+03 1.361277e+03 1.409372e+04 -3.765874e+03 1.364898e+03 1.410029e+04 -2.694001e+02 -3.621473e+00 -6.571077e+00
2.8212526879   -4.022059e+03 1.364200e+03 1.405138e+04 -3.752960e+03 1.367884e+03 1.405798e+04 -2.690990e+02 -3.684502e+00 -6.598011e+00
2.8712526879   -4.021951e+03 1.336495e+03 1.405099e+04 -3.752702e+03 1.340170e+03 1.405767e+04 -2.692492e+02 -3.675247e+00 -6.672594e+00
2.9212526879   -4.024862e+03 1.332652e+03 1.402798e+04 -3.754940e+03 1.336340e+03 1.403463e+04 -2.699228e+02 -3.687526e+00 -6.649882e+00
2.9712526879   -4.020108e+03 1.336443e+03 1.401814e+04 -3.750256e+03 1.339979e+03 1.402478e+04 -2.698520e+02 -3.536744e+00 -6.643403e+00
3.0212526879   -4.019556e+03 1.344269e+03 1.403418e+04 -3.749561e+03 1.347740e+03 1.404077e+04 -2.699946e+02 -3.471558e+00 -6.585233e+00
3.0712526879   -4.015321e+03 1.339343e+03 1.401482e+04 -3.745546e+03 1.342721e+03 1.402132e+04 -2.697746e+02 -3.377512e+00 -6.498068e+00
3.1212526879   -4.014218e+03 1.328905e+03 1.402523e+04 -3.744149e+03 1.332248e+03 1.403182e+04 -2.700693e+02 -3.342646e+00 -6.586028e+00
3.17125268787  -4.006861e+03 1.345571e+03 1.398492e+04 -3.735429e+03 1.348753e+03 1.399159e+04 -2.714315e+02 -3.182532e+00 -6.676935e+00
3.22125268787  -3.996258e+03 1.329931e+03 1.396099e+04 -3.724023e+03 1.333071e+03 1.396784e+04 -2.722351e+02 -3.139842e+00 -6.854639e+00
3.27125268787  -4.001747e+03 1.344124e+03 1.398945e+04 -3.729237e+03 1.347104e+03 1.399650e+04 -2.725105e+02 -2.979852e+00 -7.048133e+00
3.32125268787  -3.983555e+03 1.332172e+03 1.395133e+04 -3.711327e+03 1.335171e+03 1.395845e+04 -2.722279e+02 -2.999317e+00 -7.120585e+00
3.37125268787  -3.997144e+03 1.355264e+03 1.399835e+04 -3.723916e+03 1.358275e+03 1.400559e+04 -2.732279e+02 -3.011170e+00 -7.235124e+00
3.42125268787  -3.983669e+03 1.311246e+03 1.398002e+04 -3.709487e+03 1.314312e+03 1.398729e+04 -2.741821e+02 -3.065155e+00 -7.269339e+00
3.47125268787  -3.986885e+03 1.337847e+03 1.400107e+04 -3.712891e+03 1.340994e+03 1.400832e+04 -2.739944e+02 -3.146268e+00 -7.251980e+00
3.52125268787  -3.974384e+03 1.331548e+03 1.397756e+04 -3.700953e+03 1.334647e+03 1.398482e+04 -2.734312e+02 -3.099373e+00 -7.256052e+00
3.57125268787  -3.976660e+03 1.325487e+03 1.396623e+04 -3.703283e+03 1.328527e+03 1.397345e+04 -2.733778e+02 -3.039452e+00 -7.217714e+00
3.62125268787  -3.975467e+03 1.339798e+03 1.394985e+04 -3.701535e+03 1.342743e+03 1.395700e+04 -2.739320e+02 -2.944781e+00 -7.152446e+00
3.67125268787  -3.968257e+03 1.333340e+03 1.394406e+04 -3.694118e+03 1.336183e+03 1.395113e+04 -2.741390e+02 -2.842866e+00 -7.062108e+00
3.72125268787  -3.946701e+03 1.301021e+03 1.392891e+04 -3.672755e+03 1.303522e+03 1.393607e+04 -2.739460e+02 -2.500688e+00 -7.163367e+00
3.77125268787  -3.953150e+03 1.330432e+03 1.392313e+04 -3.679709e+03 1.332810e+03 1.393021e+04 -2.734404e+02 -2.377711e+00 -7.086024e+00
3.82125268787  -3.972241e+03 1.316443e+03 1.397594e+04 -3.697475e+03 1.318792e+03 1.398304e+04 -2.747664e+02 -2.349153e+00 -7.103760e+00
3.87125268787  -3.951357e+03 1.326438e+03 1.392899e+04 -3.675195e+03 1.328627e+03 1.393613e+04 -2.761611e+02 -2.189417e+00 -7.139607e+00
3.92125268787  -3.947170e+03 1.322466e+03 1.392043e+04 -3.671292e+03 1.324546e+03 1.392759e+04 -2.758779e+02 -2.080014e+00 -7.164906e+00
3.97125268787  -3.967199e+03 1.339925e+03 1.395945e+04 -3.691320e+03 1.341996e+03 1.396660e+04 -2.758796e+02 -2.071518e+00 -7.146595e+00
4.02125268787  -3.951756e+03 1.337723e+03 1.390440e+04 -3.675624e+03 1.339972e+03 1.391148e+04 -2.761318e+02 -2.248780e+00 -7.076228e+00
4.07125268787  -3.949773e+03 1.315578e+03 1.390372e+04 -3.672754e+03 1.317751e+03 1.391093e+04 -2.770186e+02 -2.172786e+00 -7.209497e+00
4.12125268787  -3.944861e+03 1.342244e+03 1.389018e+04 -3.667966e+03 1.344411e+03 1.389740e+04 -2.768945e+02 -2.167075e+00 -7.211833e+00
4.17125268787  -3.940021e+03 1.303629e+03 1.388926e+04 -3.663635e+03 1.305826e+03 1.389647e+04 -2.763860e+02 -2.196972e+00 -7.205248e+00
4.22125268787  -3.947515e+03 1.327214e+03 1.391444e+04 -3.671883e+03 1.329385e+03 1.392158e+04 -2.756315e+02 -2.171829e+00 -7.146820e+00
4.27125268787  -3.948771e+03 1.336319e+03 1.393778e+04 -3.672931e+03 1.338530e+03 1.394479e+04 -2.758394e+02 -2.211350e+00 -7.009316e+00
4.32125268787  -3.946349e+03 1.318421e+03 1.394289e+04 -3.669887e+03 1.320618e+03 1.394987e+04 -2.764618e+02 -2.196698e+00 -6.976524e+00
4.37125268787  -3.953816e+03 1.322501e+03 1.395539e+04 -3.678180e+03 1.324631e+03 1.396235e+04 -2.756355e+02 -2.130325e+00 -6.961891e+00
4.42125268787  -3.946583e+03 1.302666e+03 1.394221e+04 -3.671875e+03 1.304779e+03 1.394909e+04 -2.747079e+02 -2.112922e+00 -6.881042e+00
4.47125268787  -3.957638e+03 1.327726e+03 1.396037e+04 -3.683897e+03 1.329945e+03 1.396709e+04 -2.737401e+02 -2.219747e+00 -6.720368e+00
4.52125268787  -3.956188e+03 1.323937e+03 1.395655e+04 -3.682010e+03 1.326140e+03 1.396329e+04 -2.741788e+02 -2.203475e+00 -6.743852e+00
4.57125268787  -3.945986e+03 1.313741e+03 1.391251e+04 -3.672692e+03 1.315950e+03 1.391919e+04 -2.732937e+02 -2.208753e+00 -6.678218e+00
4.62125268787  -3.942869e+03 1.309020e+03 1.390678e+04 -3.670539e+03 1.311270e+03 1.391340e+04 -2.723297e+02 -2.249780e+00 -6.622492e+00
4.67125268787  -3.944552e+03 1.327683e+03 1.389504e+04 -3.673350e+03 1.329893e+03 1.390160e+04 -2.712018e+02 -2.209807e+00 -6.559089e+00
4.72125268787  -3.946536e+03 1.331461e+03 1.388771e+04 -3.675117e+03 1.333717e+03 1.389421e+04 -2.714194e+02 -2.256337e+00 -6.496585e+00
4.77125268787  -3.955463e+03 1.319617e+03 1.390433e+04 -3.683300e+03 1.321794e+03 1.391088e+04 -2.721623e+02 -2.177535e+00 -6.551690e+00
4.82125268787  -3.960806e+03 1.320924e+03 1.391404e+04 -3.689179e+03 1.323172e+03 1.392054e+04 -2.716276e+02 -2.248063e+00 -6.500881e+00
4.87125268787  -3.945939e+03 1.279316e+03 1.387506e+04 -3.675553e+03 1.281453e+03 1.388163e+04 -2.703865e+02 -2.136681e+00 -6.570401e+00
4.92125268787  -3.961285e+03 1.306922e+03 1.388622e+04 -3.690988e+03 1.309068e+03 1.389267e+04 -2.702969e+02 -2.146496e+00 -6.449938e+00
4.97125268787  -3.952074e+03 1.300667e+03 1.387854e+04 -3.682092e+03 1.302848e+03 1.388483e+04 -2.699819e+02 -2.180336e+00 -6.290868e+00
5.02125268787  -3.950414e+03 1.280546e+03 1.387238e+04 -3.680936e+03 1.282641e+03 1.387858e+04 -2.694775e+02 -2.094737e+00 -6.198875e+00
5.07125268787  -3.952896e+03 1.305879e+03 1.386266e+04 -3.684649e+03 1.307883e+03 1.386875e+04 -2.682468e+02 -2.004062e+00 -6.088175e+00
5.12125268787  -3.948713e+03 1.275578e+03 1.385639e+04 -3.680105e+03 1.277337e+03 1.386250e+04 -2.686087e+02 -1.758703e+00 -6.103415e+00
5.17125268787  -3.964362e+03 1.322645e+03 1.389379e+04 -3.695441e+03 1.324304e+03 1.389976e+04 -2.689217e+02 -1.658348e+00 -5.970943e+00
5.22125268787  -3.964298e+03 1.277205e+03 1.389472e+04 -3.695766e+03 1.278594e+03 1.390068e+04 -2.685315e+02 -1.389230e+00 -5.961174e+00
5.27125268787  -3.960883e+03 1.285225e+03 1.386132e+04 -3.693441e+03 1.286396e+03 1.386734e+04 -2.674425e+02 -1.170932e+00 -6.023671e+00
5.32125268787  -3.961339e+03 1.279170e+03 1.387560e+04 -3.693334e+03 1.280260e+03 1.388152e+04 -2.680051e+02 -1.090448e+00 -5.928959e+00
5.37125268787  -3.973224e+03 1.303147e+03 1.385977e+04 -3.704786e+03 1.304054e+03 1.386563e+04 -2.684378e+02 -9.068516e-01 -5.857286e+00
5.42125268787  -3.953483e+03 1.272159e+03 1.381303e+04 -3.685643e+03 1.272749e+03 1.381902e+04 -2.678394e+02 -5.899261e-01 -5.991457e+00
5.47125268787  -3.955821e+03 1.290088e+03 1.382001e+04 -3.688596e+03 1.290571e+03 1.382604e+04 -2.672250e+02 -4.834690e-01 -6.030870e+00
5.52125268787  -3.968807e+03 1.296661e+03 1.384811e+04 -3.700962e+03 1.297080e+03 1.385410e+04 -2.678451e+02 -4.192219e-01 -5.989740e+00
5.57125268787  -3.970535e+03 1.278180e+03 1.387134e+04 -3.702132e+03 1.278595e+03 1.387729e+04 -2.684038e+02 -4.154149e-01 -5.952963e+00
5.62125268787  -3.956988e+03 1.249051e+03 1.382937e+04 -3.689968e+03 1.249415e+03 1.383534e+04 -2.670207e+02 -3.639189e-01 -5.969053e+00
5.67125268787  -3.948926e+03 1.254951e+03 1.380761e+04 -3.683712e+03 1.255151e+03 1.381360e+04 -2.652139e+02 -1.997281e-01 -5.994393e+00
5.72117979617  -3.954707e+03 1.263914e+03 1.385039e+04 -3.689372e+03 1.263915e+03 1.385642e+04 -2.653344e+02 -1.189607e-03 -6.031394e+00
5.77108552207  -3.961276e+03 1.259292e+03 1.385465e+04 -3.696334e+03 1.259153e+03 1.386050e+04 -2.649428e+02 1.398889e-01 -5.855468e+00
5.82091122507  -3.953124e+03 1.279929e+03 1.384831e+04 -3.688893e+03 1.279567e+03 1.385403e+04 -2.642309e+02 3.613459e-01 -5.720586e+00
5.87065673359  -3.955004e+03 1.276303e+03 1.385519e+04 -3.692148e+03 1.275788e+03 1.386080e+04 -2.628560e+02 5.148986e-01 -5.613471e+00
5.92035032332  -3.954928e+03 1.263181e+03 1.384119e+04 -3.691479e+03 1.262458e+03 1.384680e+04 -2.634499e+02 7.232933e-01 -5.603035e+00
5.97000035555  -3.949501e+03 1.293079e+03 1.382830e+04 -3.686202e+03 1.292217e+03 1.383386e+04 -2.632998e+02 8.621513e-01 -5.559912e+00
6.01959021959  -3.949965e+03 1.251617e+03 1.384777e+04 -3.687645e+03 1.250552e+03 1.385339e+04 -2.623199e+02 1.065112e+00 -5.620530e+00
6.0691137177   -3.944680e+03 1.276685e+03 1.382600e+04 -3.683205e+03 1.275488e+03 1.383164e+04 -2.614744e+02 1.197226e+00 -5.633215e+00
6.11857419738  -3.948901e+03 1.268962e+03 1.381218e+04 -3.687261e+03 1.267549e+03 1.381782e+04 -2.616404e+02 1.412692e+00 -5.637666e+00
6.167988388677 -3.937330e+03 1.264085e+03 1.379792e+04 -3.675241e+03 1.262566e+03 1.380357e+04 -2.620890e+02 1.518935e+00 -5.641833e+00
6.217339147556 -3.954739e+03 1.308761e+03 1.380495e+04 -3.692672e+03 1.307221e+03 1.381041e+04 -2.620674e+02 1.540094e+00 -5.458082e+00
6.266698170127 -3.929390e+03 1.261403e+03 1.377164e+04 -3.667872e+03 1.259622e+03 1.377709e+04 -2.615172e+02 1.780552e+00 -5.448791e+00
6.316037869524 -3.934671e+03 1.259656e+03 1.376642e+04 -3.672736e+03 1.257734e+03 1.377193e+04 -2.619357e+02 1.921636e+00 -5.507502e+00
6.365377921471 -3.932868e+03 1.266865e+03 1.379787e+04 -3.669716e+03 1.264911e+03 1.380336e+04 -2.631523e+02 1.954158e+00 -5.495192e+00
6.414658783574 -3.953955e+03 1.292110e+03 1.381792e+04 -3.691052e+03 1.290338e+03 1.382324e+04 -2.629031e+02 1.771497e+00 -5.314303e+00
6.463927246532 -3.937890e+03 1.277069e+03 1.379930e+04 -3.674786e+03 1.275248e+03 1.380461e+04 -2.631034e+02 1.821224e+00 -5.312213e+00
6.513186037132 -3.922776e+03 1.257891e+03 1.375443e+04 -3.659977e+03 1.255993e+03 1.375974e+04 -2.627982e+02 1.898671e+00 -5.301256e+00
6.562438595773 -3.941792e+03 1.298468e+03 1.379091e+04 -3.678134e+03 1.296678e+03 1.379614e+04 -2.636578e+02 1.789867e+00 -5.227532e+00
6.611659259244 -3.929961e+03 1.280137e+03 1.377190e+04 -3.666441e+03 1.278314e+03 1.377715e+04 -2.635195e+02 1.822659e+00 -5.249140e+00
6.6608695595426 -3.922625e+03 1.267238e+03 1.376303e+04 -3.659624e+03 1.265415e+03 1.376828e+04 -2.630011e+02 1.823487e+00 -5.250130e+00
6.7100381644393 -3.938058e+03 1.279944e+03 1.380045e+04 -3.675425e+03 1.278101e+03 1.380577e+04 -2.626330e+02 1.843562e+00 -5.316633e+00
6.7591899805728 -3.922863e+03 1.284408e+03 1.374421e+04 -3.659501e+03 1.282592e+03 1.374949e+04 -2.633623e+02 1.815251e+00 -5.287556e+00
6.8083492645364 -3.929373e+03 1.260702e+03 1.375121e+04 -3.665324e+03 1.258909e+03 1.375653e+04 -2.640486e+02 1.793104e+00 -5.314805e+00
6.8575271375699 -3.926737e+03 1.266183e+03 1.377091e+04 -3.662966e+03 1.264380e+03 1.377613e+04 -2.637705e+02 1.802554e+00 -5.221377e+00
6.9066642593957 -3.926177e+03 1.287741e+03 1.373573e+04 -3.662678e+03 1.286063e+03 1.374083e+04 -2.634989e+02 1.678002e+00 -5.094397e+00
6.9557636050352 -3.920806e+03 1.270568e+03 1.373268e+04 -3.656961e+03 1.268781e+03 1.373777e+04 -2.638451e+02 1.786663e+00 -5.087021e+00
7.0048182929071 -3.932998e+03 1.285739e+03 1.375623e+04 -3.668079e+03 1.283951e+03 1.376128e+04 -2.649194e+02 1.787370e+00 -5.052683e+00
7.0538384029534 -3.923240e+03 1.259060e+03 1.376215e+04 -3.658993e+03 1.257318e+03 1.376718e+04 -2.642475e+02 1.741661e+00 -5.033528e+00
7.1028296220637 -3.917798e+03 1.262521e+03 1.372789e+04 -3.653511e+03 1.260777e+03 1.373297e+04 -2.642869e+02 1.743693e+00 -5.072550e+00
7.15176947618659 -3.920420e+03 1.281114e+03 1.375691e+04 -3.656019e+03 1.279218e+03 1.376207e+04 -2.644010e+02 1.895613e+00 -5.154687e+00
7.20067278994225 -3.932447e+03 1.272531e+03 1.377307e+04 -3.666765e+03 1.270515e+03 1.377825e+04 -2.656821e+02 2.015499e+00 -5.176579e+00
7.24952347554364 -3.917679e+03 1.241961e+03 1.376044e+04 -3.651908e+03 1.239846e+03 1.376558e+04 -2.657709e+02 2.115432e+00 -5.148425e+00
7.29830839699151 -3.918867e+03 1.244075e+03 1.375578e+04 -3.653286e+03 1.241922e+03 1.376086e+04 -2.655806e+02 2.153060e+00 -5.080838e+00
7.34703603053049 -3.934076e+03 1.274429e+03 1.376387e+04 -3.668745e+03 1.272200e+03 1.376894e+04 -2.653309e+02 2.229563e+00 -5.070096e+00
7.39574897666533 -3.913258e+03 1.246137e+03 1.371217e+04 -3.647399e+03 1.243794e+03 1.371725e+04 -2.658588e+02 2.342887e+00 -5.080048e+00
7.44442607823267 -3.916338e+03 1.258918e+03 1.372553e+04 -3.650220e+03 1.256465e+03 1.373061e+04 -2.661176e+02 2.453301e+00 -5.082854e+00
7.49305702669108 -3.912484e+03 1.250346e+03 1.373855e+04 -3.646404e+03 1.247692e+03 1.374371e+04 -2.660803e+02 2.653253e+00 -5.160944e+00
7.54170169730769 -3.930998e+03 1.277056e+03 1.376079e+04 -3.665484e+03 1.274419e+03 1.376591e+04 -2.655132e+02 2.637333e+00 -5.118439e+00
7.59032579645933 -3.915731e+03 1.256586e+03 1.371992e+04 -3.649937e+03 1.253964e+03 1.372493e+04 -2.657935e+02 2.622316e+00 -5.011491e+00
7.63894712004826 -3.915841e+03 1.250054e+03 1.370733e+04 -3.649378e+03 1.247356e+03 1.371237e+04 -2.664635e+02 2.697337e+00 -5.036905e+00
7.68755296624756 -3.935725e+03 1.266995e+03 1.376973e+04 -3.669884e+03 1.264463e+03 1.377448e+04 -2.658411e+02 2.532196e+00 -4.748647e+00
7.73616283512939 -3.921441e+03 1.235194e+03 1.374351e+04 -3.655705e+03 1.232514e+03 1.374827e+04 -2.657362e+02 2.679899e+00 -4.762744e+00
7.78473851895553 -3.918798e+03 1.230907e+03 1.375448e+04 -3.653518e+03 1.228155e+03 1.375913e+04 -2.652802e+02 2.752960e+00 -4.649318e+00
7.83330284272018 -3.937491e+03 1.263152e+03 1.378829e+04 -3.671427e+03 1.260402e+03 1.379282e+04 -2.660643e+02 2.750017e+00 -4.529199e+00
7.88190662383441 -3.935180e+03 1.289481e+03 1.373574e+04 -3.669191e+03 1.286618e+03 1.374023e+04 -2.659889e+02 2.863011e+00 -4.484015e+00
7.93046575571035 -3.922519e+03 1.240363e+03 1.373122e+04 -3.656601e+03 1.237481e+03 1.373567e+04 -2.659181e+02 2.881524e+00 -4.449002e+00
7.97901755091  -3.915415e+03 1.234974e+03 1.370071e+04 -3.650258e+03 1.231947e+03 1.370523e+04 -2.651567e+02 3.026594e+00 -4.519751e+00
8.02759624379002 -3.925151e+03 1.247787e+03 1.370470e+04 -3.659106e+03 1.244727e+03 1.370924e+04 -2.660454e+02 3.059508e+00 -4.535733e+00
8.07620864393304 -3.925737e+03 1.257881e+03 1.369975e+04 -3.658564e+03 1.254792e+03 1.370430e+04 -2.671731e+02 3.088960e+00 -4.545746e+00
8.124795244073864 -3.928852e+03 1.251374e+03 1.371126e+04 -3.661717e+03 1.248322e+03 1.371580e+04 -2.671345e+02 3.051855e+00 -4.545533e+00
8.173328648261098 -3.938854e+03 1.261723e+03 1.371007e+04 -3.671472e+03 1.258615e+03 1.371466e+04 -2.673821e+02 3.108262e+00 -4.596065e+00
8.221852043373959 -3.938765e+03 1.283350e+03 1.370748e+04 -3.670830e+03 1.280211e+03 1.371205e+04 -2.679346e+02 3.139813e+00 -4.567986e+00
8.270361572706765 -3.934650e+03 1.260992e+03 1.370219e+04 -3.665330e+03 1.257836e+03 1.370681e+04 -2.693193e+02 3.156257e+00 -4.619059e+00
8.318902351825908 -3.949056e+03 1.274804e+03 1.371345e+04 -3.679010e+03 1.271688e+03 1.371801e+04 -2.700457e+02 3.116520e+00 -4.566449e+00
8.367437180399401 -3.921852e+03 1.241087e+03 1.362738e+04 -3.651833e+03 1.237743e+03 1.363217e+04 -2.700190e+02 3.344629e+00 -4.792559e+00
8.415972042794028 -3.931998e+03 1.254580e+03 1.367385e+04 -3.662877e+03 1.251193e+03 1.367865e+04 -2.691212e+02 3.387840e+00 -4.801145e+00
8.464490280649057 -3.942465e+03 1.268746e+03 1.369620e+04 -3.672277e+03 1.265394e+03 1.370093e+04 -2.701878e+02 3.351919e+00 -4.726668e+00
8.512970306194713 -3.936641e+03 1.259534e+03 1.369491e+04 -3.665805e+03 1.256202e+03 1.369960e+04 -2.708366e+02 3.331561e+00 -4.689303e+00
8.561418074749856 -3.952299e+03 1.276386e+03 1.373114e+04 -3.681808e+03 1.273070e+03 1.373590e+04 -2.704911e+02 3.316567e+00 -4.751616e+00
8.609865923189934 -3.932844e+03 1.265593e+03 1.368194e+04 -3.662800e+03 1.262302e+03 1.368672e+04 -2.700444e+02 3.291490e+00 -4.775785e+00
8.658312919127614 -3.939058e+03 1.249512e+03 1.370731e+04 -3.668871e+03 1.246200e+03 1.371207e+04 -2.701873e+02 3.311373e+00 -4.758416e+00
8.706702027549019 -3.926463e+03 1.244993e+03 1.366308e+04 -3.655700e+03 1.241749e+03 1.366777e+04 -2.707636e+02 3.243498e+00 -4.689964e+00
8.755030857568279 -3.936737e+03 1.262478e+03 1.369978e+04 -3.666936e+03 1.259341e+03 1.370440e+04 -2.698012e+02 3.136275e+00 -4.617791e+00
8.803283932383426 -3.940377e+03 1.274137e+03 1.370792e+04 -3.671044e+03 1.270965e+03 1.371253e+04 -2.693336e+02 3.172063e+00 -4.613455e+00
8.851538325304713 -3.933902e+03 1.255251e+03 1.370622e+04 -3.664983e+03 1.252095e+03 1.371083e+04 -2.689189e+02 3.155634e+00 -4.608524e+00
8.899759969123703 -3.941362e+03 1.271965e+03 1.371496e+04 -3.671514e+03 1.268838e+03 1.371959e+04 -2.698486e+02 3.126791e+00 -4.625749e+00
8.947982669237478 -3.944423e+03 1.268969e+03 1.371841e+04 -3.675140e+03 1.265961e+03 1.372303e+04 -2.692829e+02 3.008134e+00 -4.624455e+00
8.996228617703496 -3.926910e+03 1.258292e+03 1.368148e+04 -3.658355e+03 1.255301e+03 1.368606e+04 -2.685545e+02 2.991233e+00 -4.588250e+00
9.044487871211576 -3.945528e+03 1.260307e+03 1.372280e+04 -3.678301e+03 1.257430e+03 1.372736e+04 -2.672266e+02 2.876673e+00 -4.561271e+00
9.092745366436265 -3.935740e+03 1.285849e+03 1.368157e+04 -3.668093e+03 1.283113e+03 1.368598e+04 -2.676471e+02 2.735096e+00 -4.412638e+00
9.141004598694243 -3.927485e+03 1.269646e+03 1.368664e+04 -3.660117e+03 1.266932e+03 1.369110e+04 -2.673679e+02 2.713608e+00 -4.453918e+00
9.189266744104874 -3.927576e+03 1.272347e+03 1.367435e+04 -3.660885e+03 1.269611e+03 1.367878e+04 -2.666910e+02 2.735694e+00 -4.423797e+00
9.237545719828328 -3.919296e+03 1.248151e+03 1.368487e+04 -3.653335e+03 1.245536e+03 1.368923e+04 -2.659612e+02 2.614172e+00 -4.358667e+00
9.285765449131832 -3.935687e+03 1.249082e+03 1.370186e+04 -3.669976e+03 1.246472e+03 1.370621e+04 -2.657110e+02 2.610431e+00 -4.348670e+00
9.333971959409086 -3.936484e+03 1.276911e+03 1.371376e+04 -3.669963e+03 1.274459e+03 1.371805e+04 -2.665210e+02 2.451843e+00 -4.291715e+00
9.38218052275198 -3.935005e+03 1.239197e+03 1.371431e+04 -3.668634e+03 1.236805e+03 1.371857e+04 -2.663706e+02 2.392331e+00 -4.258705e+00
9.430387544087072 -3.912023e+03 1.246002e+03 1.367741e+04 -3.646476e+03 1.243546e+03 1.368167e+04 -2.655472e+02 2.455759e+00 -4.257342e+00