# Force       
# CofR        : (2.929541e+00 0.000000e+00 2.000000e-01)
#
# Time        	total_x total_y total_z	pressure_x pressure_y pressure_z	viscous_x viscous_y viscous_z
0.00385805     -2.974985e+03 1.064892e+03 1.624554e+04 -2.562563e+03 1.064728e+03 1.625436e+04 -4.124219e+02 1.636542e-01 -8.815073e+00
0.00474966     -2.961072e+03 1.071845e+03 1.628508e+04 -2.541322e+03 1.071659e+03 1.629406e+04 -4.197501e+02 1.863692e-01 -8.975852e+00
0.00581959     -2.950217e+03 1.078442e+03 1.631619e+04 -2.522188e+03 1.078223e+03 1.632536e+04 -4.280295e+02 2.186427e-01 -9.164404e+00
0.00710351     -2.946771e+03 1.083508e+03 1.633583e+04 -2.509532e+03 1.083245e+03 1.634521e+04 -4.372392e+02 2.636675e-01 -9.379766e+00
0.00864421     -2.953064e+03 1.078969e+03 1.633788e+04 -2.505785e+03 1.078648e+03 1.634750e+04 -4.472786e+02 3.213238e-01 -9.619954e+00
0.0104931      -2.966250e+03 1.077344e+03 1.632741e+04 -2.508314e+03 1.076952e+03 1.633729e+04 -4.579363e+02 3.921962e-01 -9.881740e+00
0.0127117      -2.989442e+03 1.064727e+03 1.630708e+04 -2.520586e+03 1.064256e+03 1.631724e+04 -4.688564e+02 4.703729e-01 -1.015733e+01
0.015374       -3.020552e+03 1.049421e+03 1.627005e+04 -2.541009e+03 1.048875e+03 1.628049e+04 -4.795425e+02 5.455298e-01 -1.043926e+01
0.0185688      -3.062088e+03 1.024248e+03 1.624059e+04 -2.572453e+03 1.023643e+03 1.625132e+04 -4.896343e+02 6.049326e-01 -1.072689e+01
0.0224026      -3.111220e+03 1.010294e+03 1.622743e+04 -2.613114e+03 1.009669e+03 1.623844e+04 -4.981066e+02 6.257430e-01 -1.100461e+01
0.0270031      -3.173634e+03 9.961034e+02 1.621910e+04 -2.669590e+03 9.955201e+02 1.623036e+04 -5.040435e+02 5.832699e-01 -1.125646e+01
0.0324862      -3.237905e+03 9.932662e+02 1.621248e+04 -2.731292e+03 9.928233e+02 1.622396e+04 -5.066131e+02 4.429035e-01 -1.147281e+01
0.0388875      -3.311110e+03 9.999878e+02 1.617746e+04 -2.805712e+03 9.998126e+02 1.618912e+04 -5.053974e+02 1.751846e-01 -1.165271e+01
0.0462547      -3.400137e+03 1.000625e+03 1.611741e+04 -2.899632e+03 1.000866e+03 1.612921e+04 -5.005050e+02 -2.403958e-01 -1.179258e+01
0.0546449      -3.494436e+03 1.015868e+03 1.605401e+04 -3.002022e+03 1.016665e+03 1.606592e+04 -4.924142e+02 -7.962976e-01 -1.190862e+01
0.0640535      -3.607264e+03 1.012512e+03 1.603156e+04 -3.125370e+03 1.014017e+03 1.604357e+04 -4.818943e+02 -1.504970e+00 -1.201509e+01
0.0742134      -3.736739e+03 1.008044e+03 1.600407e+04 -3.266552e+03 1.010348e+03 1.601618e+04 -4.701869e+02 -2.304169e+00 -1.210982e+01
0.0843661      -3.859109e+03 9.795758e+02 1.596143e+04 -3.400530e+03 9.826805e+02 1.597363e+04 -4.585790e+02 -3.104652e+00 -1.219633e+01
0.0945191      -3.982524e+03 9.342966e+02 1.595231e+04 -3.535089e+03 9.381930e+02 1.596455e+04 -4.474350e+02 -3.896453e+00 -1.223917e+01
0.104679       -4.093502e+03 8.778509e+02 1.594217e+04 -3.656703e+03 8.825192e+02 1.595444e+04 -4.367988e+02 -4.668337e+00 -1.226317e+01
0.11486        -4.187263e+03 8.123041e+02 1.591513e+04 -3.760494e+03 8.176946e+02 1.592739e+04 -4.267691e+02 -5.390488e+00 -1.226288e+01
0.12507        -4.264476e+03 7.594253e+02 1.585961e+04 -3.847353e+03 7.654611e+02 1.587180e+04 -4.171236e+02 -6.035777e+00 -1.219295e+01
0.135317       -4.327862e+03 7.261475e+02 1.580787e+04 -3.919909e+03 7.327578e+02 1.581997e+04 -4.079528e+02 -6.610252e+00 -1.209943e+01
0.145604       -4.376738e+03 7.188304e+02 1.575888e+04 -3.977573e+03 7.259581e+02 1.577085e+04 -3.991649e+02 -7.127728e+00 -1.196584e+01
0.155929       -4.414793e+03 7.622806e+02 1.573334e+04 -4.023880e+03 7.698572e+02 1.574511e+04 -3.909130e+02 -7.576524e+00 -1.176864e+01
0.166284       -4.444490e+03 8.485032e+02 1.573873e+04 -4.061395e+03 8.564821e+02 1.575024e+04 -3.830954e+02 -7.978983e+00 -1.151691e+01
0.176664       -4.463828e+03 9.674357e+02 1.578081e+04 -4.088086e+03 9.757714e+02 1.579208e+04 -3.757423e+02 -8.335666e+00 -1.127167e+01
0.187073       -4.468593e+03 1.115313e+03 1.582878e+04 -4.099657e+03 1.123963e+03 1.583979e+04 -3.689362e+02 -8.650141e+00 -1.101200e+01
0.19752        -4.459676e+03 1.281481e+03 1.589116e+04 -4.097065e+03 1.290413e+03 1.590189e+04 -3.626111e+02 -8.931793e+00 -1.073139e+01
0.208018       -4.437288e+03 1.452824e+03 1.595718e+04 -4.080460e+03 1.462007e+03 1.596762e+04 -3.568281e+02 -9.182566e+00 -1.043206e+01
0.218582       -4.411723e+03 1.624716e+03 1.603044e+04 -4.060204e+03 1.634125e+03 1.604054e+04 -3.515186e+02 -9.409695e+00 -1.009858e+01
0.229228       -4.376314e+03 1.784990e+03 1.609059e+04 -4.029687e+03 1.794592e+03 1.610035e+04 -3.466271e+02 -9.602313e+00 -9.758203e+00
0.23997        -4.346104e+03 1.928235e+03 1.613261e+04 -4.003898e+03 1.937990e+03 1.614205e+04 -3.422059e+02 -9.754988e+00 -9.433653e+00
0.250528       -4.303501e+03 2.028276e+03 1.615488e+04 -3.965229e+03 2.038170e+03 1.616399e+04 -3.382720e+02 -9.893916e+00 -9.105291e+00
0.260834       -4.264023e+03 2.095846e+03 1.615673e+04 -3.929216e+03 2.105852e+03 1.616550e+04 -3.348065e+02 -1.000562e+01 -8.772904e+00
0.270947       -4.228142e+03 2.123227e+03 1.614556e+04 -3.896342e+03 2.133321e+03 1.615403e+04 -3.318001e+02 -1.009359e+01 -8.463638e+00
0.280913       -4.192079e+03 2.113180e+03 1.612300e+04 -3.862933e+03 2.123337e+03 1.613118e+04 -3.291460e+02 -1.015645e+01 -8.179196e+00
0.290847       -4.174820e+03 2.066923e+03 1.608424e+04 -3.847958e+03 2.077136e+03 1.609216e+04 -3.268616e+02 -1.021225e+01 -7.925706e+00
0.300859       -4.146687e+03 2.000375e+03 1.602947e+04 -3.821732e+03 2.010631e+03 1.603718e+04 -3.249547e+02 -1.025639e+01 -7.705316e+00
0.311043       -4.133102e+03 1.910065e+03 1.595442e+04 -3.809753e+03 1.920361e+03 1.596193e+04 -3.233494e+02 -1.029617e+01 -7.512019e+00
0.321455       -4.107319e+03 1.807099e+03 1.588536e+04 -3.785265e+03 1.817432e+03 1.589271e+04 -3.220538e+02 -1.033309e+01 -7.356918e+00
0.332186       -4.099824e+03 1.689699e+03 1.580805e+04 -3.778605e+03 1.700069e+03 1.581528e+04 -3.212193e+02 -1.036963e+01 -7.233041e+00
0.343359       -4.085215e+03 1.585466e+03 1.573857e+04 -3.764414e+03 1.595871e+03 1.574569e+04 -3.208011e+02 -1.040484e+01 -7.120822e+00
0.354841       -4.076878e+03 1.488349e+03 1.567059e+04 -3.756009e+03 1.498788e+03 1.567763e+04 -3.208685e+02 -1.043848e+01 -7.043252e+00
0.366341       -4.058869e+03 1.412883e+03 1.559972e+04 -3.737374e+03 1.423343e+03 1.560670e+04 -3.214948e+02 -1.046032e+01 -6.983503e+00
0.377859       -4.043498e+03 1.355578e+03 1.555442e+04 -3.720913e+03 1.366058e+03 1.556132e+04 -3.225845e+02 -1.047948e+01 -6.899924e+00
0.389397       -4.029875e+03 1.332101e+03 1.553050e+04 -3.705696e+03 1.342603e+03 1.553730e+04 -3.241784e+02 -1.050145e+01 -6.804838e+00
0.40096        -4.010106e+03 1.335545e+03 1.550334e+04 -3.683907e+03 1.346071e+03 1.550999e+04 -3.261992e+02 -1.052621e+01 -6.657185e+00
0.412556       -3.999509e+03 1.343942e+03 1.550192e+04 -3.670984e+03 1.354496e+03 1.550840e+04 -3.285247e+02 -1.055419e+01 -6.476941e+00
0.424189       -3.985134e+03 1.360585e+03 1.548760e+04 -3.653955e+03 1.371163e+03 1.549392e+04 -3.311790e+02 -1.057797e+01 -6.317546e+00
0.434811       -3.968675e+03 1.363685e+03 1.544931e+04 -3.634818e+03 1.374263e+03 1.545549e+04 -3.338569e+02 -1.057841e+01 -6.182094e+00
0.444786       -3.956898e+03 1.372573e+03 1.543299e+04 -3.620318e+03 1.383152e+03 1.543907e+04 -3.365801e+02 -1.057836e+01 -6.086257e+00
0.45543        -3.960171e+03 1.379253e+03 1.546661e+04 -3.620609e+03 1.389835e+03 1.547266e+04 -3.395625e+02 -1.058255e+01 -6.045285e+00
0.46508        -3.941905e+03 1.370237e+03 1.540627e+04 -3.599502e+03 1.380824e+03 1.541231e+04 -3.424029e+02 -1.058691e+01 -6.030732e+00
0.475682       -3.946548e+03 1.376176e+03 1.543263e+04 -3.600959e+03 1.386767e+03 1.543869e+04 -3.455886e+02 -1.059108e+01 -6.063237e+00
0.48742        -3.946487e+03 1.377784e+03 1.542526e+04 -3.597443e+03 1.388362e+03 1.543142e+04 -3.490437e+02 -1.057775e+01 -6.166607e+00
0.498178       -3.928100e+03 1.342032e+03 1.535066e+04 -3.575776e+03 1.352588e+03 1.535694e+04 -3.523241e+02 -1.055611e+01 -6.278354e+00
0.510144       -3.939737e+03 1.343034e+03 1.537216e+04 -3.583960e+03 1.353606e+03 1.537861e+04 -3.557775e+02 -1.057178e+01 -6.448589e+00
0.521987       -3.931984e+03 1.328269e+03 1.532605e+04 -3.572843e+03 1.338867e+03 1.533270e+04 -3.591410e+02 -1.059880e+01 -6.648264e+00
0.533233       -3.933212e+03 1.313907e+03 1.528310e+04 -3.571030e+03 1.324495e+03 1.529000e+04 -3.621820e+02 -1.058785e+01 -6.895957e+00
0.544089       -3.936339e+03 1.308400e+03 1.524611e+04 -3.571209e+03 1.318972e+03 1.525325e+04 -3.651299e+02 -1.057273e+01 -7.139171e+00
0.554756       -3.942531e+03 1.301886e+03 1.523440e+04 -3.574612e+03 1.312445e+03 1.524175e+04 -3.679196e+02 -1.055966e+01 -7.359309e+00
0.566299       -3.956214e+03 1.317223e+03 1.522194e+04 -3.585372e+03 1.327763e+03 1.522956e+04 -3.708420e+02 -1.053992e+01 -7.618783e+00
0.578855       -3.958222e+03 1.325506e+03 1.521267e+04 -3.584378e+03 1.336001e+03 1.522058e+04 -3.738432e+02 -1.049528e+01 -7.914468e+00
0.589722       -3.942174e+03 1.326211e+03 1.512846e+04 -3.565688e+03 1.336690e+03 1.513659e+04 -3.764865e+02 -1.047915e+01 -8.132076e+00
0.601858       -3.954390e+03 1.356825e+03 1.514876e+04 -3.575077e+03 1.367290e+03 1.515712e+04 -3.793124e+02 -1.046489e+01 -8.366062e+00
0.612402       -3.939249e+03 1.362660e+03 1.509197e+04 -3.557415e+03 1.373096e+03 1.510053e+04 -3.818342e+02 -1.043613e+01 -8.567744e+00
0.623897       -3.953225e+03 1.400781e+03 1.512492e+04 -3.568750e+03 1.411169e+03 1.513370e+04 -3.844746e+02 -1.038776e+01 -8.778566e+00
0.634926       -3.943456e+03 1.419259e+03 1.509806e+04 -3.556396e+03 1.429598e+03 1.510702e+04 -3.870598e+02 -1.033929e+01 -8.951560e+00
0.645608       -3.950005e+03 1.450315e+03 1.509418e+04 -3.560432e+03 1.460608e+03 1.510325e+04 -3.895736e+02 -1.029337e+01 -9.065533e+00
0.655382       -3.940739e+03 1.467301e+03 1.508084e+04 -3.548824e+03 1.477519e+03 1.509001e+04 -3.919146e+02 -1.021828e+01 -9.160617e+00
0.665105       -3.949376e+03 1.495834e+03 1.509622e+04 -3.555149e+03 1.505984e+03 1.510547e+04 -3.942269e+02 -1.014925e+01 -9.254559e+00
0.675384       -3.950513e+03 1.518907e+03 1.512103e+04 -3.553886e+03 1.528987e+03 1.513040e+04 -3.966274e+02 -1.008005e+01 -9.367733e+00
0.684949       -3.946315e+03 1.525633e+03 1.510617e+04 -3.547432e+03 1.535654e+03 1.511564e+04 -3.988831e+02 -1.002112e+01 -9.471640e+00
0.694389       -3.944631e+03 1.534445e+03 1.511727e+04 -3.543582e+03 1.544414e+03 1.512685e+04 -4.010489e+02 -9.968823e+00 -9.577214e+00
0.704795       -3.951345e+03 1.544453e+03 1.514912e+04 -3.547992e+03 1.554397e+03 1.515884e+04 -4.033537e+02 -9.944358e+00 -9.728802e+00
0.71494        -3.939469e+03 1.546113e+03 1.512235e+04 -3.533921e+03 1.556038e+03 1.513222e+04 -4.055474e+02 -9.924357e+00 -9.871762e+00
0.725072       -3.939679e+03 1.531847e+03 1.512723e+04 -3.532047e+03 1.541762e+03 1.513725e+04 -4.076321e+02 -9.914836e+00 -1.002152e+01
0.735163       -3.931914e+03 1.539230e+03 1.510613e+04 -3.522266e+03 1.549159e+03 1.511631e+04 -4.096479e+02 -9.929510e+00 -1.017612e+01
0.745251       -3.927514e+03 1.518682e+03 1.510504e+04 -3.515934e+03 1.528641e+03 1.511538e+04 -4.115797e+02 -9.959879e+00 -1.033937e+01
0.755363       -3.923205e+03 1.518698e+03 1.509023e+04 -3.509783e+03 1.528721e+03 1.510074e+04 -4.134223e+02 -1.002215e+01 -1.051007e+01
0.765506       -3.913441e+03 1.507041e+03 1.509643e+04 -3.498237e+03 1.517140e+03 1.510711e+04 -4.152040e+02 -1.009948e+01 -1.068255e+01
0.77566        -3.909080e+03 1.498126e+03 1.508975e+04 -3.492207e+03 1.508291e+03 1.510062e+04 -4.168727e+02 -1.016545e+01 -1.086598e+01
0.785868       -3.903167e+03 1.504909e+03 1.507483e+04 -3.484650e+03 1.515140e+03 1.508587e+04 -4.185166e+02 -1.023034e+01 -1.104908e+01
0.796169       -3.895396e+03 1.487974e+03 1.507677e+04 -3.475298e+03 1.498274e+03 1.508801e+04 -4.200981e+02 -1.030029e+01 -1.124056e+01
0.806558       -3.893790e+03 1.488695e+03 1.508247e+04 -3.472171e+03 1.499071e+03 1.509389e+04 -4.216196e+02 -1.037664e+01 -1.141847e+01
0.817063       -3.885063e+03 1.481314e+03 1.508087e+04 -3.461953e+03 1.491775e+03 1.509246e+04 -4.231105e+02 -1.046178e+01 -1.159720e+01
0.827686       -3.887614e+03 1.487044e+03 1.507859e+04 -3.463093e+03 1.497583e+03 1.509037e+04 -4.245213e+02 -1.053883e+01 -1.178108e+01
0.838437       -3.881803e+03 1.486058e+03 1.506735e+04 -3.455909e+03 1.496694e+03 1.507932e+04 -4.258936e+02 -1.063673e+01 -1.196221e+01
0.849346       -3.875611e+03 1.484573e+03 1.507183e+04 -3.448432e+03 1.495286e+03 1.508397e+04 -4.271788e+02 -1.071341e+01 -1.213959e+01
0.860389       -3.871512e+03 1.496945e+03 1.504812e+04 -3.443081e+03 1.507737e+03 1.506043e+04 -4.284303e+02 -1.079192e+01 -1.230239e+01
0.871557       -3.867865e+03 1.491245e+03 1.504823e+04 -3.438210e+03 1.502119e+03 1.506068e+04 -4.296552e+02 -1.087418e+01 -1.244835e+01
0.882803       -3.867137e+03 1.493428e+03 1.503748e+04 -3.436333e+03 1.504380e+03 1.505006e+04 -4.308043e+02 -1.095148e+01 -1.257864e+01
0.894067       -3.865118e+03 1.491963e+03 1.502380e+04 -3.433179e+03 1.502981e+03 1.503650e+04 -4.319386e+02 -1.101730e+01 -1.270047e+01
0.905251       -3.862989e+03 1.495682e+03 1.501503e+04 -3.429982e+03 1.506761e+03 1.502786e+04 -4.330067e+02 -1.107924e+01 -1.282206e+01
0.916345       -3.859335e+03 1.484207e+03 1.500380e+04 -3.425260e+03 1.495360e+03 1.501671e+04 -4.340746e+02 -1.115270e+01 -1.291028e+01
0.927318       -3.857178e+03 1.486500e+03 1.497635e+04 -3.422116e+03 1.497724e+03 1.498934e+04 -4.350617e+02 -1.122397e+01 -1.298919e+01
0.938192       -3.857462e+03 1.474231e+03 1.497873e+04 -3.421427e+03 1.485531e+03 1.499179e+04 -4.360349e+02 -1.129998e+01 -1.305670e+01
0.948982       -3.853884e+03 1.467076e+03 1.495785e+04 -3.416912e+03 1.478441e+03 1.497096e+04 -4.369718e+02 -1.136471e+01 -1.311858e+01
0.959728       -3.853180e+03 1.456396e+03 1.495128e+04 -3.415246e+03 1.467828e+03 1.496445e+04 -4.379339e+02 -1.143166e+01 -1.317282e+01
0.970462       -3.845514e+03 1.449916e+03 1.493317e+04 -3.406654e+03 1.461408e+03 1.494641e+04 -4.388608e+02 -1.149265e+01 -1.324420e+01
0.981204       -3.845276e+03 1.440838e+03 1.492412e+04 -3.405426e+03 1.452386e+03 1.493743e+04 -4.398505e+02 -1.154828e+01 -1.330996e+01
0.99197        -3.840330e+03 1.435537e+03 1.491930e+04 -3.399532e+03 1.447147e+03 1.493267e+04 -4.407989e+02 -1.161078e+01 -1.337457e+01
1.00274        -3.843309e+03 1.427558e+03 1.490925e+04 -3.401567e+03 1.439232e+03 1.492268e+04 -4.417420e+02 -1.167396e+01 -1.343091e+01
1.01351        -3.836405e+03 1.418832e+03 1.491927e+04 -3.393739e+03 1.430573e+03 1.493276e+04 -4.426660e+02 -1.174003e+01 -1.348510e+01
1.02427        -3.841116e+03 1.416815e+03 1.490747e+04 -3.397546e+03 1.428644e+03 1.492099e+04 -4.435704e+02 -1.182938e+01 -1.351450e+01
1.03502        -3.833930e+03 1.419074e+03 1.490288e+04 -3.389492e+03 1.430975e+03 1.491643e+04 -4.444388e+02 -1.190085e+01 -1.355908e+01
1.04576        -3.837811e+03 1.407907e+03 1.491408e+04 -3.392598e+03 1.419880e+03 1.492769e+04 -4.452123e+02 -1.197337e+01 -1.361206e+01
1.05649        -3.835741e+03 1.404040e+03 1.491931e+04 -3.389780e+03 1.416079e+03 1.493298e+04 -4.459603e+02 -1.203915e+01 -1.367499e+01
1.067189       -3.834002e+03 1.397354e+03 1.492571e+04 -3.387386e+03 1.409451e+03 1.493945e+04 -4.466164e+02 -1.209676e+01 -1.373803e+01
1.077845       -3.833432e+03 1.395458e+03 1.492101e+04 -3.386166e+03 1.407621e+03 1.493481e+04 -4.472658e+02 -1.216266e+01 -1.379684e+01
1.088493       -3.827327e+03 1.384667e+03 1.492116e+04 -3.379532e+03 1.396898e+03 1.493501e+04 -4.477956e+02 -1.223090e+01 -1.385206e+01
1.098533       -3.823339e+03 1.365448e+03 1.492326e+04 -3.375076e+03 1.377747e+03 1.493714e+04 -4.482631e+02 -1.229945e+01 -1.387928e+01
1.10833        -3.824142e+03 1.358008e+03 1.492765e+04 -3.375481e+03 1.370379e+03 1.494156e+04 -4.486614e+02 -1.237095e+01 -1.391287e+01
1.117982       -3.820570e+03 1.349065e+03 1.492712e+04 -3.371530e+03 1.361499e+03 1.494107e+04 -4.490407e+02 -1.243364e+01 -1.395063e+01
1.127308       -3.820273e+03 1.334114e+03 1.493955e+04 -3.370925e+03 1.346611e+03 1.495353e+04 -4.493474e+02 -1.249752e+01 -1.398440e+01
1.13616        -3.816196e+03 1.324303e+03 1.493095e+04 -3.366604e+03 1.336860e+03 1.494497e+04 -4.495918e+02 -1.255672e+01 -1.401541e+01
1.144622       -3.818639e+03 1.306194e+03 1.494017e+04 -3.368848e+03 1.318807e+03 1.495421e+04 -4.497906e+02 -1.261325e+01 -1.404182e+01
1.152916       -3.817720e+03 1.299255e+03 1.495850e+04 -3.367783e+03 1.311923e+03 1.497258e+04 -4.499371e+02 -1.266825e+01 -1.407528e+01
1.1610042      -3.818772e+03 1.289139e+03 1.495384e+04 -3.368736e+03 1.301856e+03 1.496796e+04 -4.500357e+02 -1.271721e+01 -1.411855e+01
1.1689736      -3.817885e+03 1.278140e+03 1.496808e+04 -3.367785e+03 1.290900e+03 1.498224e+04 -4.501000e+02 -1.276002e+01 -1.416231e+01
1.1768724      -3.823846e+03 1.272001e+03 1.497252e+04 -3.373720e+03 1.284803e+03 1.498673e+04 -4.501255e+02 -1.280235e+01 -1.420386e+01
1.1846839      -3.818744e+03 1.264807e+03 1.498839e+04 -3.368631e+03 1.277646e+03 1.500264e+04 -4.501130e+02 -1.283919e+01 -1.424710e+01
1.1924644      -3.825534e+03 1.251561e+03 1.500322e+04 -3.375463e+03 1.264435e+03 1.501752e+04 -4.500710e+02 -1.287434e+01 -1.429772e+01
1.2001912      -3.822994e+03 1.250951e+03 1.499948e+04 -3.373008e+03 1.263856e+03 1.501383e+04 -4.499866e+02 -1.290536e+01 -1.435121e+01
1.2078756      -3.828393e+03 1.246853e+03 1.500985e+04 -3.378518e+03 1.259789e+03 1.502425e+04 -4.498750e+02 -1.293627e+01 -1.439816e+01
1.2155163      -3.826675e+03 1.243515e+03 1.501605e+04 -3.376951e+03 1.256484e+03 1.503050e+04 -4.497242e+02 -1.296869e+01 -1.444937e+01
1.2232563      -3.827669e+03 1.237574e+03 1.502669e+04 -3.378124e+03 1.250574e+03 1.504120e+04 -4.495453e+02 -1.300022e+01 -1.450720e+01
1.2312723      -3.833957e+03 1.236672e+03 1.505019e+04 -3.384616e+03 1.249702e+03 1.506476e+04 -4.493409e+02 -1.303004e+01 -1.456848e+01
1.23944724     -3.835982e+03 1.232997e+03 1.504969e+04 -3.386878e+03 1.246056e+03 1.506433e+04 -4.491040e+02 -1.305875e+01 -1.463810e+01
1.24808919     -3.837818e+03 1.240770e+03 1.505824e+04 -3.389001e+03 1.253855e+03 1.507295e+04 -4.488173e+02 -1.308447e+01 -1.471456e+01
1.25743152     -3.843700e+03 1.233164e+03 1.509149e+04 -3.395224e+03 1.246281e+03 1.510629e+04 -4.484765e+02 -1.311642e+01 -1.480087e+01
1.26734725     -3.846809e+03 1.238101e+03 1.507768e+04 -3.398730e+03 1.251246e+03 1.509257e+04 -4.480797e+02 -1.314532e+01 -1.489608e+01
1.27794777     -3.849973e+03 1.232631e+03 1.509949e+04 -3.402359e+03 1.245801e+03 1.511448e+04 -4.476146e+02 -1.316988e+01 -1.499523e+01
1.28857841     -3.850733e+03 1.221256e+03 1.508377e+04 -3.403639e+03 1.234454e+03 1.509886e+04 -4.470940e+02 -1.319762e+01 -1.508906e+01
1.29924701     -3.849071e+03 1.223639e+03 1.508133e+04 -3.402537e+03 1.236873e+03 1.509652e+04 -4.465344e+02 -1.323351e+01 -1.519072e+01
1.30990175     -3.850724e+03 1.207897e+03 1.508513e+04 -3.404819e+03 1.221163e+03 1.510041e+04 -4.459042e+02 -1.326588e+01 -1.528262e+01
1.32056582     -3.849008e+03 1.206344e+03 1.508510e+04 -3.403776e+03 1.219626e+03 1.510048e+04 -4.452320e+02 -1.328225e+01 -1.537781e+01
1.33118783     -3.852624e+03 1.197086e+03 1.507488e+04 -3.408057e+03 1.210377e+03 1.509037e+04 -4.445673e+02 -1.329100e+01 -1.548742e+01
1.341741488    -3.848155e+03 1.194159e+03 1.506869e+04 -3.404318e+03 1.207449e+03 1.508427e+04 -4.438375e+02 -1.328937e+01 -1.557987e+01
1.352232434    -3.853948e+03 1.180562e+03 1.507330e+04 -3.410818e+03 1.193837e+03 1.508897e+04 -4.431303e+02 -1.327482e+01 -1.567148e+01
1.362651633    -3.853499e+03 1.174325e+03 1.507006e+04 -3.411087e+03 1.187578e+03 1.508582e+04 -4.424126e+02 -1.325353e+01 -1.575776e+01
1.372987129    -3.856996e+03 1.172062e+03 1.506967e+04 -3.415297e+03 1.185271e+03 1.508550e+04 -4.416983e+02 -1.320886e+01 -1.582649e+01
1.383237854    -3.856191e+03 1.173778e+03 1.507335e+04 -3.415178e+03 1.186930e+03 1.508922e+04 -4.410129e+02 -1.315132e+01 -1.587423e+01
1.393409414    -3.863208e+03 1.178426e+03 1.508321e+04 -3.422830e+03 1.191506e+03 1.509911e+04 -4.403783e+02 -1.308014e+01 -1.590480e+01
1.403532713    -3.859117e+03 1.183940e+03 1.508000e+04 -3.419378e+03 1.196918e+03 1.509594e+04 -4.397390e+02 -1.297842e+01 -1.593337e+01
1.413623607    -3.862723e+03 1.196950e+03 1.509453e+04 -3.423553e+03 1.209802e+03 1.511048e+04 -4.391696e+02 -1.285256e+01 -1.595308e+01
1.4237067      -3.865101e+03 1.207894e+03 1.510358e+04 -3.426483e+03 1.220590e+03 1.511955e+04 -4.386173e+02 -1.269651e+01 -1.597031e+01
1.433788625    -3.863583e+03 1.224167e+03 1.511195e+04 -3.425506e+03 1.236681e+03 1.512792e+04 -4.380767e+02 -1.251351e+01 -1.597430e+01
1.443882138    -3.865016e+03 1.237261e+03 1.512005e+04 -3.427456e+03 1.249557e+03 1.513602e+04 -4.375609e+02 -1.229597e+01 -1.596845e+01
1.453968576    -3.866670e+03 1.253044e+03 1.512813e+04 -3.429581e+03 1.265096e+03 1.514408e+04 -4.370888e+02 -1.205212e+01 -1.595179e+01
1.464050708    -3.865644e+03 1.253156e+03 1.513692e+04 -3.428957e+03 1.264953e+03 1.515284e+04 -4.366863e+02 -1.179691e+01 -1.592533e+01
1.474139908    -3.868486e+03 1.248594e+03 1.514766e+04 -3.432252e+03 1.260122e+03 1.516354e+04 -4.362344e+02 -1.152787e+01 -1.588647e+01
1.484245423    -3.865755e+03 1.242161e+03 1.513780e+04 -3.429954e+03 1.253392e+03 1.515363e+04 -4.358011e+02 -1.123161e+01 -1.583667e+01
1.494172703    -3.866869e+03 1.234090e+03 1.512809e+04 -3.431480e+03 1.245010e+03 1.514386e+04 -4.353892e+02 -1.092029e+01 -1.577522e+01
1.503858148    -3.862784e+03 1.220701e+03 1.511856e+04 -3.427814e+03 1.231311e+03 1.513426e+04 -4.349699e+02 -1.060923e+01 -1.569730e+01
1.513332675    -3.861779e+03 1.203322e+03 1.510763e+04 -3.427204e+03 1.213615e+03 1.512325e+04 -4.345756e+02 -1.029229e+01 -1.561882e+01
1.522549799    -3.861018e+03 1.191820e+03 1.509832e+04 -3.426833e+03 1.201793e+03 1.511386e+04 -4.341851e+02 -9.973293e+00 -1.553758e+01
1.531537317    -3.858567e+03 1.176583e+03 1.508462e+04 -3.424742e+03 1.186241e+03 1.510008e+04 -4.338253e+02 -9.657552e+00 -1.546169e+01
1.5402935714   -3.858741e+03 1.164869e+03 1.506429e+04 -3.425267e+03 1.174218e+03 1.507968e+04 -4.334731e+02 -9.349302e+00 -1.538838e+01
1.548874449    -3.858015e+03 1.147182e+03 1.506561e+04 -3.424853e+03 1.156223e+03 1.508095e+04 -4.331617e+02 -9.041091e+00 -1.533231e+01
1.5572993157   -3.854696e+03 1.145750e+03 1.505137e+04 -3.421809e+03 1.154482e+03 1.506664e+04 -4.328872e+02 -8.732653e+00 -1.527864e+01
1.565596011    -3.857485e+03 1.126009e+03 1.503626e+04 -3.424819e+03 1.134440e+03 1.505149e+04 -4.326665e+02 -8.431648e+00 -1.523108e+01
1.5737510172   -3.853740e+03 1.125325e+03 1.502157e+04 -3.421252e+03 1.133464e+03 1.503676e+04 -4.324874e+02 -8.138478e+00 -1.519832e+01
1.5817701136   -3.858040e+03 1.116008e+03 1.501569e+04 -3.425688e+03 1.123864e+03 1.503086e+04 -4.323513e+02 -7.856905e+00 -1.517592e+01
1.5896565479   -3.853527e+03 1.110242e+03 1.500780e+04 -3.421267e+03 1.117821e+03 1.502296e+04 -4.322599e+02 -7.578847e+00 -1.515547e+01
1.5974209487   -3.858424e+03 1.110375e+03 1.500228e+04 -3.426207e+03 1.117684e+03 1.501742e+04 -4.322179e+02 -7.309285e+00 -1.513818e+01
1.6050783731   -3.855213e+03 1.113837e+03 1.498777e+04 -3.422989e+03 1.120881e+03 1.500289e+04 -4.322236e+02 -7.043880e+00 -1.511936e+01
1.6126276298   -3.860549e+03 1.121879e+03 1.499525e+04 -3.428273e+03 1.128656e+03 1.501034e+04 -4.322765e+02 -6.777614e+00 -1.509792e+01
1.6200807824   -3.856499e+03 1.135197e+03 1.498270e+04 -3.424129e+03 1.141704e+03 1.499777e+04 -4.323702e+02 -6.507272e+00 -1.506696e+01
1.6274461181   -3.860392e+03 1.150226e+03 1.497480e+04 -3.427890e+03 1.156457e+03 1.498983e+04 -4.325020e+02 -6.231479e+00 -1.502961e+01
1.6347213716   -3.854609e+03 1.171842e+03 1.497380e+04 -3.421942e+03 1.177786e+03 1.498878e+04 -4.326674e+02 -5.944429e+00 -1.498170e+01
1.64190858     -3.853676e+03 1.185956e+03 1.496693e+04 -3.420811e+03 1.191602e+03 1.498186e+04 -4.328646e+02 -5.646511e+00 -1.492963e+01
1.6490146067   -3.852581e+03 1.206500e+03 1.496814e+04 -3.419495e+03 1.211833e+03 1.498302e+04 -4.330861e+02 -5.332976e+00 -1.487649e+01
1.6560390495   -3.849920e+03 1.219928e+03 1.496203e+04 -3.416595e+03 1.224936e+03 1.497685e+04 -4.333254e+02 -5.008537e+00 -1.481992e+01
1.662984792    -3.851968e+03 1.247394e+03 1.494661e+04 -3.418386e+03 1.252076e+03 1.496137e+04 -4.335821e+02 -4.682164e+00 -1.476467e+01
1.6698461371   -3.848175e+03 1.256317e+03 1.494430e+04 -3.414318e+03 1.260675e+03 1.495901e+04 -4.338573e+02 -4.357917e+00 -1.471178e+01
1.676637303    -3.846916e+03 1.270139e+03 1.493596e+04 -3.412761e+03 1.274175e+03 1.495063e+04 -4.341545e+02 -4.036096e+00 -1.466255e+01
1.6833508454   -3.849586e+03 1.283756e+03 1.493265e+04 -3.415119e+03 1.287480e+03 1.494727e+04 -4.344674e+02 -3.723506e+00 -1.461772e+01
1.6900006387   -3.847789e+03 1.291544e+03 1.490967e+04 -3.412989e+03 1.294967e+03 1.492425e+04 -4.347995e+02 -3.422738e+00 -1.457443e+01
1.6965923559   -3.853344e+03 1.293501e+03 1.491814e+04 -3.418199e+03 1.296636e+03 1.493267e+04 -4.351457e+02 -3.134405e+00 -1.453130e+01
1.7031214052   -3.851244e+03 1.290756e+03 1.490012e+04 -3.415741e+03 1.293621e+03 1.491461e+04 -4.355029e+02 -2.864398e+00 -1.449198e+01
1.709655309    -3.852662e+03 1.290705e+03 1.489089e+04 -3.416788e+03 1.293312e+03 1.490534e+04 -4.358741e+02 -2.606736e+00 -1.445283e+01
1.7162244572   -3.852371e+03 1.287137e+03 1.488127e+04 -3.416118e+03 1.289499e+03 1.489568e+04 -4.362530e+02 -2.362573e+00 -1.441525e+01
1.7228026701   -3.854344e+03 1.275151e+03 1.487933e+04 -3.417698e+03 1.277280e+03 1.489370e+04 -4.366455e+02 -2.128939e+00 -1.437614e+01
1.7294733528   -3.855456e+03 1.271789e+03 1.486474e+04 -3.418409e+03 1.273691e+03 1.487908e+04 -4.370478e+02 -1.901562e+00 -1.433908e+01
1.7362993212   -3.854804e+03 1.269850e+03 1.485934e+04 -3.417353e+03 1.271535e+03 1.487365e+04 -4.374509e+02 -1.685008e+00 -1.430422e+01
1.7434040739   -3.855904e+03 1.254136e+03 1.486113e+04 -3.418013e+03 1.255615e+03 1.487541e+04 -4.378906e+02 -1.479248e+00 -1.427190e+01
1.7509448513   -3.855593e+03 1.254315e+03 1.484767e+04 -3.417210e+03 1.255583e+03 1.486191e+04 -4.383831e+02 -1.268344e+00 -1.424683e+01
1.75923235504  -3.857307e+03 1.252680e+03 1.484042e+04 -3.418359e+03 1.253735e+03 1.485465e+04 -4.389481e+02 -1.055121e+00 -1.423037e+01
1.76846686336  -3.864087e+03 1.249476e+03 1.483396e+04 -3.424477e+03 1.250311e+03 1.484818e+04 -4.396098e+02 -8.345785e-01 -1.422350e+01
1.77833535805  -3.861160e+03 1.249035e+03 1.481984e+04 -3.420830e+03 1.249646e+03 1.483404e+04 -4.403300e+02 -6.114441e-01 -1.420137e+01
1.78819998686  -3.858101e+03 1.246901e+03 1.478948e+04 -3.417019e+03 1.247285e+03 1.480366e+04 -4.410812e+02 -3.846996e-01 -1.417495e+01
1.79801888406  -3.858503e+03 1.253019e+03 1.476524e+04 -3.416618e+03 1.253181e+03 1.477938e+04 -4.418852e+02 -1.619732e-01 -1.413960e+01
1.8078050509   -3.857452e+03 1.255554e+03 1.475754e+04 -3.414699e+03 1.255500e+03 1.477164e+04 -4.427531e+02 5.324684e-02 -1.409435e+01
1.81756642468  -3.858371e+03 1.263973e+03 1.474666e+04 -3.414687e+03 1.263718e+03 1.476071e+04 -4.436841e+02 2.551469e-01 -1.405565e+01
1.8273198665   -3.859823e+03 1.275684e+03 1.472466e+04 -3.415175e+03 1.275249e+03 1.473867e+04 -4.446479e+02 4.350526e-01 -1.400965e+01
1.83707580604  -3.856767e+03 1.293384e+03 1.470990e+04 -3.411120e+03 1.292773e+03 1.472386e+04 -4.456468e+02 6.113489e-01 -1.395618e+01
1.84684161129  -3.860027e+03 1.299339e+03 1.470153e+04 -3.413314e+03 1.298553e+03 1.471543e+04 -4.467125e+02 7.863250e-01 -1.390121e+01
1.85661630695  -3.859942e+03 1.314278e+03 1.469093e+04 -3.412118e+03 1.313315e+03 1.470476e+04 -4.478234e+02 9.632879e-01 -1.383002e+01
1.8664029419   -3.860508e+03 1.327674e+03 1.467341e+04 -3.411532e+03 1.326533e+03 1.468718e+04 -4.489756e+02 1.140758e+00 -1.376800e+01
1.87619678677  -3.863012e+03 1.333125e+03 1.465909e+04 -3.412855e+03 1.331823e+03 1.467280e+04 -4.501565e+02 1.301893e+00 -1.370479e+01
1.88599271747  -3.859683e+03 1.343834e+03 1.465321e+04 -3.408313e+03 1.342372e+03 1.466685e+04 -4.513691e+02 1.461690e+00 -1.363777e+01
1.89579200185  -3.862466e+03 1.345696e+03 1.463969e+04 -3.409873e+03 1.344084e+03 1.465326e+04 -4.525932e+02 1.612409e+00 -1.357192e+01
1.90559083078  -3.863167e+03 1.350455e+03 1.462247e+04 -3.409333e+03 1.348700e+03 1.463599e+04 -4.538339e+02 1.754954e+00 -1.352253e+01
1.91538556266  -3.864378e+03 1.350680e+03 1.461445e+04 -3.409281e+03 1.348804e+03 1.462793e+04 -4.550973e+02 1.875811e+00 -1.347868e+01
1.92517777655  -3.868829e+03 1.352276e+03 1.460391e+04 -3.412458e+03 1.350304e+03 1.461736e+04 -4.563704e+02 1.972739e+00 -1.344913e+01
1.93496836381  -3.868342e+03 1.355254e+03 1.459111e+04 -3.410660e+03 1.353211e+03 1.460453e+04 -4.576818e+02 2.042826e+00 -1.342070e+01
1.94474786693  -3.872487e+03 1.346604e+03 1.458831e+04 -3.413500e+03 1.344503e+03 1.460170e+04 -4.589869e+02 2.100461e+00 -1.338650e+01
1.954517877954 -3.874599e+03 1.348484e+03 1.457844e+04 -3.414260e+03 1.346344e+03 1.459179e+04 -4.603393e+02 2.139762e+00 -1.334774e+01
1.964284646661 -3.874653e+03 1.344835e+03 1.457260e+04 -3.412996e+03 1.342669e+03 1.458589e+04 -4.616571e+02 2.165490e+00 -1.329627e+01
1.97404006696  -3.878117e+03 1.347274e+03 1.456634e+04 -3.415100e+03 1.345091e+03 1.457959e+04 -4.630172e+02 2.183240e+00 -1.324917e+01
1.98378285049  -3.878847e+03 1.347046e+03 1.456136e+04 -3.414489e+03 1.344851e+03 1.457456e+04 -4.643586e+02 2.194797e+00 -1.320133e+01
1.993523361316 -3.879140e+03 1.351389e+03 1.455748e+04 -3.413436e+03 1.349181e+03 1.457063e+04 -4.657034e+02 2.208083e+00 -1.315282e+01
2.003260856597 -3.881871e+03 1.353480e+03 1.455230e+04 -3.414867e+03 1.351268e+03 1.456540e+04 -4.670040e+02 2.212349e+00 -1.310518e+01
2.013007223975 -3.884078e+03 1.361872e+03 1.454237e+04 -3.415798e+03 1.359657e+03 1.455543e+04 -4.682800e+02 2.215151e+00 -1.305569e+01
2.022768594691 -3.886430e+03 1.366312e+03 1.454511e+04 -3.416896e+03 1.364094e+03 1.455811e+04 -4.695337e+02 2.217495e+00 -1.300431e+01